ITEM: TIME
0.4
ITEM: TIMESTEP
40000
ITEM: NUMBER OF ATOMS
4813
ITEM: BOX BOUNDS pp pp pp
-1.0000000000000001e-01 1.0000000000000001e-01
-2.0000000000000001e-01 1.1000000000000000e-01
-1.0000000000000000e-02 1.0000000000000000e-02
ITEM: ATOMS id type x y vx vy
10678 1 -0.051157 -0.197981 1237.42 -1347.31
9178 1 -0.087926 -0.194953 -2777.6 -4455.11
5327 1 -0.0763076 -0.196058 -619.236 -2423.34
11656 1 -0.0709521 -0.193238 878.723 -1875.45
3759 1 -0.0577833 -0.193156 6292.95 1142.85
2343 1 -0.0330744 -0.194104 619030 -1.21703e+06
3620 1 -0.0336017 -0.193066 -615683 1.22133e+06
6146 1 -5.001e-05 -0.193938 -2167.39 -6045.46
11010 1 -0.0656875 -0.190248 425.909 -5451.05
4020 1 -0.00629219 -0.190421 4.49122e+07 -1.50896e+07
9904 1 0.00268075 -0.192084 -2070.81 1098.8
1970 1 -0.0630275 -0.188268 -2.62105e+08 -1.12855e+08
4251 1 -0.0612405 -0.187499 2.62116e+08 1.12856e+08
13030 1 -0.0439145 -0.188843 -1102.16 -3271.1
8810 1 -0.00830615 -0.189744 -4.49218e+07 1.50842e+07
11058 1 -0.0986232 -0.187296 -9683.32 -1453.97
5069 1 -0.069972 -0.185017 1915.13 -2585.48
10250 1 0.00056766 -0.185651 2303.28 -7623.7
3346 1 0.00234935 -0.186399 -4435.48 7968.45
2197 1 -0.0577748 -0.182907 300.481 -894.089
1649 1 -0.0534101 -0.182757 400.766 -1102.44
3795 1 -0.0318483 -0.183478 7658.86 -12491
7923 1 -0.000235394 -0.182815 -943.599 2102.72
5460 1 -0.0833783 -0.180178 -2.34789e+06 1.07762e+07
3275 1 -0.0775206 -0.179898 -242.942 4489.16
3039 1 -0.0329979 -0.181827 -7904.22 13102.9
7974 1 -0.0257197 -0.180207 789.647 1513.48
11165 1 -0.00583534 -0.179822 216.202 -992.304
11063 1 -0.00359697 -0.181987 419.43 -1193.49
2275 1 -0.000238638 -0.182177 348.968 -1187.31
4512 1 -0.0838072 -0.17821 2.34892e+06 -1.07771e+07
3859 1 -0.0983485 -0.176047 -698.611 -1857.87
11721 1 -0.038968 -0.176931 -411.214 -1222.81
2695 1 -0.012504 -0.176573 574.559 -840.306
4235 1 -0.00952666 -0.175696 -937.787 -54205.2
2362 1 -0.0760985 -0.172492 -333.057 -1264.39
1351 1 -0.0621187 -0.173106 1349.46 6.95989
10406 1 -0.0615183 -0.17421 -1779.14 776.693
7927 1 -0.0340242 -0.174068 532.977 -833.667
10920 1 -0.00981314 -0.17304 -6804.29 58645.6
4727 1 -0.00511282 -0.173397 8.34846 -1521.93
12013 1 -0.068532 -0.170854 -1097.02 1297.43
2269 1 -0.0368214 -0.171624 210.64 -1312.21
1298 1 -0.0105954 -0.169673 4308.05 -191340
2499 1 -0.000906877 -0.170665 1943.67 -2165.61
10270 1 -0.0967507 -0.168723 -1339.74 -1079.58
1603 1 -0.0287518 -0.168647 3411.16 7032.23
11729 1 -0.0697379 -0.165419 1478.05 -1404.33
5611 1 -0.0544888 -0.1663 -204.889 1254.36
4989 1 -0.0337201 -0.165233 5250.12 -6698.41
3451 1 -0.0106157 -0.166976 3433.85 184669
5595 1 -0.0710119 -0.162331 -689.995 1223.03
9883 1 -0.0588691 -0.163426 12751.4 29291.2
3037 1 -0.0411286 -0.163133 -1661.82 -1047.84
4738 1 -0.0167057 -0.163514 -157.013 -1203.33
5366 1 -0.0107545 -0.162468 245.848 1741.33
11113 1 -0.099669 -0.159798 -617.521 -1019.25
8672 1 -0.0867972 -0.161384 171.144 1578.78
5526 1 -0.0616484 -0.160078 -1.97167e+07 -8.08387e+06
10167 1 -0.0577684 -0.160842 600824 -594469
1823 1 -0.0249617 -0.160783 -1327.69 -1069.77
8126 1 -0.0580658 -0.157005 -116123 -173839
8956 1 -0.0595333 -0.159211 1.92244e+07 8.82804e+06
5552 1 -0.0532369 -0.157217 -102.672 7182.62
9375 1 -0.0390373 -0.15762 875.444 -1893.38
10382 1 -0.0206418 -0.159276 -277.45 1032.1
2772 1 -0.0641851 -0.154776 3442.66 3023.31
2138 1 -0.0412494 -0.155066 -1056.62 1490.97
5165 1 -0.0349173 -0.151974 -2.42881e+06 8.87935e+06
11825 1 -0.0343208 -0.154157 2.42568e+06 -8.88963e+06
4196 1 -0.0105981 -0.152434 376.73 -843.574
3287 1 -0.0774368 -0.149904 1083.94 3227.59
1820 1 -0.0784913 -0.150566 -1312.91 606.962
4515 1 -0.0534461 -0.149594 -332.845 -1822.73
10802 1 -0.0434661 -0.150659 -5981.82 10366.7
1852 1 -0.0160436 -0.151437 69.3913 2174.58
6139 1 0.001891 -0.149485 143.715 1513.32
11772 1 -0.0810905 -0.147244 1160.12 -811.351
5828 1 -0.0708408 -0.149168 -579.861 1403.24
2603 1 -0.0427991 -0.148427 -5140.57 -10051
3717 1 -0.0247843 -0.149115 5.7849e+06 1.77162e+06
10680 1 -0.0234104 -0.148691 -5.71505e+06 -1.62924e+06
4811 1 -0.0227404 -0.147078 -154661 -88701.2
9197 1 -0.0758053 -0.146247 -774.788 1126.53
10424 1 -0.0446547 -0.144613 33236.8 -65367.5
5063 1 -0.0298116 -0.144766 389447 -1.52244e+06
2434 1 -0.0249271 -0.145822 90609.6 -51040.9
12823 1 -0.016536 -0.145522 1.15164e+06 -1.07976e+06
5584 1 -0.0993794 -0.1443 1244.97 1522.54
5412 1 -0.0965193 -0.142177 -995.384 1250.84
10828 1 -0.0778869 -0.143841 -717.941 -543.631
1401 1 -0.0719263 -0.142405 1.55302e+07 6.25944e+06
1210 1 -0.0450484 -0.143617 -1.00304e+06 292776
12350 1 -0.0425872 -0.144188 971183 -227812
4231 1 -0.0390794 -0.142164 -1.69252e+06 2.19049e+07
5166 1 -0.0374228 -0.14322 -2.62902e+06 1.67344e+06
5844 1 -0.0300701 -0.143754 -389720 1.52551e+06
10700 1 -0.0182953 -0.143871 -1.1528e+06 1.08273e+06
5343 1 -0.0943767 -0.141299 -382.367 -1171.78
3431 1 -0.0699137 -0.141594 -1.55279e+07 -6.25809e+06
9777 1 -0.041739 -0.140269 -709953 236104
10199 1 -0.0392757 -0.141094 5.03823e+06 -2.38163e+07
5128 1 -0.0516159 -0.138305 4532.04 1881.94
1314 1 -0.0373915 -0.137523 -122.031 2020.99
3353 1 -0.0163713 -0.139006 240.947 1648
4250 1 -0.000614041 -0.138471 483.184 -3805.21
11157 1 -0.0645686 -0.134581 1020.19 1786.34
12738 1 0.00269347 -0.135597 -17395.2 20947
8816 1 -0.0984948 -0.132968 27.7427 -545.327
10360 1 -0.0677044 -0.13202 -182794 -206355
10401 1 -0.0406068 -0.132367 -5049.03 1486.24
2447 1 -0.0738317 -0.129666 315.14 -1015.81
8881 1 -0.0661174 -0.130153 135782 167855
1559 1 -0.0334742 -0.130545 2104.13 -772.081
11751 1 -0.0255809 -0.130754 1304.59 -1240.79
1220 1 -0.0179867 -0.131145 -1126.2 -3389.81
8280 1 -0.075908 -0.12702 290.133 1251.75
9415 1 -0.0655027 -0.126703 -418942 1.06931e+06
5938 1 -0.0647153 -0.128733 455361 -1.02348e+06
11262 1 -0.0448487 -0.128664 -38.6655 -623.784
10518 1 -0.0373281 -0.127204 -507.045 -2222.75
3468 1 -0.0193833 -0.127977 -130.347 -735.08
8650 1 -0.0981296 -0.124634 -3430.5 -459.364
4369 1 -0.0409733 -0.125933 -512.726 -2753.44
2480 1 -0.0117498 -0.124375 159.018 -501.08
2483 1 -0.0917916 -0.121591 1477.56 -2916.33
4952 1 -0.0800795 -0.122835 2.44778e+07 9.65046e+08
1822 1 -0.0572289 -0.123727 166.83 -887.7
4812 1 -0.0370112 -0.123259 -27373.1 -154965
11533 1 -0.0144332 -0.1219 -2146.08 -699.279
9997 1 -0.0825169 -0.120328 87.8088 -275.145
8403 1 -0.0800468 -0.121545 -2.44824e+07 -9.65046e+08
10589 1 -0.0685451 -0.121068 3004.32 -4586.8
1877 1 -0.0553468 -0.11996 -2623.79 -1474.98
11212 1 -0.036714 -0.121366 22057.4 152030
9937 1 -0.0295095 -0.120939 -1939.58 -659.088
10126 1 -0.021584 -0.120781 -10648.8 -1747.49
2935 1 -0.0716493 -0.116667 802693 -87196.3
11793 1 -0.0692927 -0.116926 -801436 96587.3
11477 1 -0.0486333 -0.117086 116133 -174209
5663 1 -0.0362243 -0.11806 -30.434 -5107.54
11220 1 -0.00514498 -0.118905 -272.291 -338.61
8708 1 -0.0973785 -0.114106 4153.65 -943.065
9385 1 -0.0825561 -0.114361 -7418.11 47443.8
3453 1 -0.0771116 -0.115573 -417.248 -1369.93
5000 1 -0.0501393 -0.114868 -117007 170845
12764 1 -0.0385234 -0.114195 6032.58 8671.1
4241 1 -0.0921016 -0.112824 -499.562 -468.027
8127 1 -0.0850611 -0.112398 22830.8 -6347.33
2394 1 -0.0827683 -0.112748 -5361.85 -42782
5493 1 -0.0796589 -0.112503 -3.29137e+06 -3.99297e+06
11674 1 -0.0723814 -0.112074 3239.88 8845.85
8965 1 -0.0657121 -0.113751 -1063.52 2186.73
12906 1 -0.0411606 -0.113936 6861.88 5864.32
10326 1 -0.0331144 -0.111929 -509.838 -472.493
9987 1 -0.0345372 -0.111997 509.421 -339.132
2768 1 -0.00570511 -0.113676 323.476 2070.1
13002 1 -0.0962393 -0.109203 -3355.9 5237.72
5096 1 -0.0782514 -0.110796 3.28491e+06 3.99614e+06
5559 1 -0.0866969 -0.10847 -544.827 1905.41
10151 1 -0.0211494 -0.108398 -668.462 -334.826
3033 1 -0.0143436 -0.107255 3261.31 1818.13
6109 1 -0.0561679 -0.10532 4814.36 2057.44
10398 2 -0.0568598 -0.105555 -0.0408318 -0.0153719
11372 1 -0.0504638 -0.104269 -516.868 1954.42
5479 1 -0.0406402 -0.10515 -247.436 1770.29
1701 1 -0.0333279 -0.104758 100698 -409228
1521 1 -0.029493 -0.106194 180.269 -16486.4
3633 1 -0.00537153 -0.105103 -1264.27 2208.67
2889 1 -0.0988005 -0.102439 -11234.4 3767.54
3899 1 -0.042081 -0.101763 283.731 -251.024
1431 1 -0.037034 -0.103121 442.416 2130.15
3469 1 -0.0336388 -0.103507 -101624 401256
1968 1 -0.0128465 -0.102828 439.717 -630.42
1805 1 -0.0722073 -0.100624 -6509.38 -1101.12
1618 1 -0.0407938 -0.100783 179.697 -526.277
8197 1 -0.0335726 -0.100811 693.923 6163.75
12261 1 -0.0955118 -0.0980916 -1325.37 2062.93
1393 1 -0.0924574 -0.0967197 1363.84 -440.745
2990 1 -0.0790608 -0.0968719 6925.82 49701.3
8508 1 -0.0718187 -0.0978375 173.548 -220.212
1517 1 -0.056054 -0.0974894 772.565 -144.369
4463 1 -0.0536062 -0.0988228 -335.654 -1419.4
6045 1 -0.0256897 -0.0981017 -208.238 -1352.79
3090 1 -0.0789483 -0.0960578 -6903.01 -50571.2
4826 1 -0.0619622 -0.0950021 -4395.89 -635.154
4644 1 -0.0360208 -0.0940041 -465566 181808
11573 1 -0.0297793 -0.0948757 -292.797 -298.732
5857 1 -0.0704334 -0.092452 -373.253 -5473.2
8778 1 -0.0672748 -0.0922141 -13858.2 4815.18
4794 1 -0.0382082 -0.0931483 464748 -182408
10869 1 -0.0309135 -0.0923521 -390.688 4755.13
1375 1 -0.0253531 -0.0935135 633.362 -425.62
4511 1 -0.0158278 -0.0923082 -1205.1 -1544.18
1119 1 -0.0144347 -0.092391 -207.514 2037.65
8916 1 -0.0858288 -0.0909467 -1128.14 -198.303
10857 1 -0.0733119 -0.089929 -3527.29 1902.21
11020 1 -0.0658375 -0.0888364 4985.34 -147.47
5905 1 -0.0390693 -0.0898258 48.894 -1400.45
11730 1 -0.0300809 -0.0896961 -303.454 -367.752
2458 1 0.00131107 -0.0910349 37.6949 -389.209
9664 1 -0.0952064 -0.0878091 -3076.64 -156.075
5952 1 -0.0858319 -0.0870806 -428.394 2068.15
10845 1 -0.0831617 -0.0876585 -1236.68 -4516.79
3993 1 -0.0726888 -0.0872428 554.033 -145.047
4970 1 -0.0465331 -0.0886723 -4258.52 -4186.84
3973 1 -0.0169642 -0.0881156 -76.1698 -352.096
9573 1 -0.0161208 -0.0848044 1261.85 1882.66
8316 1 -0.008076 -0.0859614 -787.244 -370.668
10853 1 -0.00153397 -0.0846745 -4572.67 2085.55
12189 1 0.00262154 -0.0857304 4275.89 -2957.77
5163 1 -0.0726522 -0.0816128 -461.798 2274.99
2377 1 -0.070282 -0.081239 63.9629 -335.084
5799 1 0.0011636 -0.0827962 -2476.17 2472.33
1 3 -0.1 -0.08 0 0
2 3 -0.099 -0.08 0 0
3 3 -0.098 -0.08 0 0
101 3 -0.1 -0.079 0 0
102 3 -0.099 -0.079 0 0
103 3 -0.098 -0.079 0 0
4 3 -0.097 -0.08 0 0
5 3 -0.096 -0.08 0 0
6 3 -0.095 -0.08 0 0
104 3 -0.097 -0.079 0 0
105 3 -0.096 -0.079 0 0
106 3 -0.095 -0.079 0 0
7 3 -0.094 -0.08 0 0
8 3 -0.093 -0.08 0 0
107 3 -0.094 -0.079 0 0
108 3 -0.093 -0.079 0 0
9 3 -0.092 -0.08 0 0
10 3 -0.091 -0.08 0 0
11 3 -0.09 -0.08 0 0
109 3 -0.092 -0.079 0 0
110 3 -0.091 -0.079 0 0
111 3 -0.09 -0.079 0 0
1855 1 -0.0903632 -0.0808321 -849.644 2783.97
12 3 -0.089 -0.08 0 0
13 3 -0.088 -0.08 0 0
112 3 -0.089 -0.079 0 0
113 3 -0.088 -0.079 0 0
14 3 -0.087 -0.08 0 0
15 3 -0.086 -0.08 0 0
16 3 -0.085 -0.08 0 0
114 3 -0.087 -0.079 0 0
115 3 -0.086 -0.079 0 0
116 3 -0.085 -0.079 0 0
17 3 -0.084 -0.08 0 0
18 3 -0.083 -0.08 0 0
117 3 -0.084 -0.079 0 0
118 3 -0.083 -0.079 0 0
9008 1 -0.0839463 -0.0797778 -596.765 1421.49
19 3 -0.082 -0.08 0 0
20 3 -0.081 -0.08 0 0
21 3 -0.08 -0.08 0 0
119 3 -0.082 -0.079 0 0
120 3 -0.081 -0.079 0 0
121 3 -0.08 -0.079 0 0
22 3 -0.079 -0.08 0 0
23 3 -0.078 -0.08 0 0
122 3 -0.079 -0.079 0 0
123 3 -0.078 -0.079 0 0
24 3 -0.077 -0.08 0 0
25 3 -0.076 -0.08 0 0
26 3 -0.075 -0.08 0 0
124 3 -0.077 -0.079 0 0
125 3 -0.076 -0.079 0 0
126 3 -0.075 -0.079 0 0
27 3 -0.074 -0.08 0 0
28 3 -0.073 -0.08 0 0
127 3 -0.074 -0.079 0 0
128 3 -0.073 -0.079 0 0
29 3 -0.072 -0.08 0 0
30 3 -0.071 -0.08 0 0
31 3 -0.07 -0.08 0 0
129 3 -0.072 -0.079 0 0
130 3 -0.071 -0.079 0 0
131 3 -0.07 -0.079 0 0
32 3 -0.069 -0.08 0 0
33 3 -0.068 -0.08 0 0
132 3 -0.069 -0.079 0 0
133 3 -0.068 -0.079 0 0
34 3 -0.067 -0.08 0 0
35 3 -0.066 -0.08 0 0
36 3 -0.065 -0.08 0 0
134 3 -0.067 -0.079 0 0
135 3 -0.066 -0.079 0 0
136 3 -0.065 -0.079 0 0
37 3 -0.064 -0.08 0 0
38 3 -0.063 -0.08 0 0
137 3 -0.064 -0.079 0 0
138 3 -0.063 -0.079 0 0
3545 1 -0.0637521 -0.0797873 47.7143 -238.46
39 3 -0.062 -0.08 0 0
40 3 -0.061 -0.08 0 0
41 3 -0.06 -0.08 0 0
139 3 -0.062 -0.079 0 0
140 3 -0.061 -0.079 0 0
141 3 -0.06 -0.079 0 0
42 3 -0.059 -0.08 0 0
43 3 -0.058 -0.08 0 0
142 3 -0.059 -0.079 0 0
143 3 -0.058 -0.079 0 0
44 3 -0.057 -0.08 0 0
45 3 -0.056 -0.08 0 0
46 3 -0.055 -0.08 0 0
144 3 -0.057 -0.079 0 0
145 3 -0.056 -0.079 0 0
146 3 -0.055 -0.079 0 0
47 3 -0.054 -0.08 0 0
48 3 -0.053 -0.08 0 0
147 3 -0.054 -0.079 0 0
148 3 -0.053 -0.079 0 0
49 3 -0.052 -0.08 0 0
50 3 -0.051 -0.08 0 0
51 3 -0.05 -0.08 0 0
149 3 -0.052 -0.079 0 0
150 3 -0.051 -0.079 0 0
151 3 -0.05 -0.079 0 0
52 3 -0.049 -0.08 0 0
53 3 -0.048 -0.08 0 0
152 3 -0.049 -0.079 0 0
153 3 -0.048 -0.079 0 0
54 3 -0.047 -0.08 0 0
55 3 -0.046 -0.08 0 0
56 3 -0.045 -0.08 0 0
154 3 -0.047 -0.079 0 0
155 3 -0.046 -0.079 0 0
156 3 -0.045 -0.079 0 0
57 3 -0.044 -0.08 0 0
58 3 -0.043 -0.08 0 0
157 3 -0.044 -0.079 0 0
158 3 -0.043 -0.079 0 0
59 3 -0.042 -0.08 0 0
60 3 -0.041 -0.08 0 0
61 3 -0.04 -0.08 0 0
159 3 -0.042 -0.079 0 0
160 3 -0.041 -0.079 0 0
161 3 -0.04 -0.079 0 0
5164 1 -0.0388166 -0.0803573 4387.96 5622.74
62 3 -0.039 -0.08 0 0
63 3 -0.038 -0.08 0 0
162 3 -0.039 -0.079 0 0
163 3 -0.038 -0.079 0 0
64 3 -0.037 -0.08 0 0
65 3 -0.036 -0.08 0 0
66 3 -0.035 -0.08 0 0
164 3 -0.037 -0.079 0 0
165 3 -0.036 -0.079 0 0
166 3 -0.035 -0.079 0 0
67 3 -0.034 -0.08 0 0
68 3 -0.033 -0.08 0 0
167 3 -0.034 -0.079 0 0
168 3 -0.033 -0.079 0 0
69 3 -0.032 -0.08 0 0
70 3 -0.031 -0.08 0 0
71 3 -0.03 -0.08 0 0
169 3 -0.032 -0.079 0 0
170 3 -0.031 -0.079 0 0
171 3 -0.03 -0.079 0 0
72 3 -0.029 -0.08 0 0
73 3 -0.028 -0.08 0 0
172 3 -0.029 -0.079 0 0
173 3 -0.028 -0.079 0 0
74 3 -0.027 -0.08 0 0
75 3 -0.026 -0.08 0 0
76 3 -0.025 -0.08 0 0
174 3 -0.027 -0.079 0 0
175 3 -0.026 -0.079 0 0
176 3 -0.025 -0.079 0 0
77 3 -0.024 -0.08 0 0
78 3 -0.023 -0.08 0 0
177 3 -0.024 -0.079 0 0
178 3 -0.023 -0.079 0 0
79 3 -0.022 -0.08 0 0
80 3 -0.021 -0.08 0 0
81 3 -0.02 -0.08 0 0
179 3 -0.022 -0.079 0 0
180 3 -0.021 -0.079 0 0
181 3 -0.02 -0.079 0 0
82 3 -0.019 -0.08 0 0
83 3 -0.018 -0.08 0 0
182 3 -0.019 -0.079 0 0
183 3 -0.018 -0.079 0 0
11873 1 -0.0165339 -0.0808548 1497.06 -11487.9
84 3 -0.017 -0.08 0 0
85 3 -0.016 -0.08 0 0
86 3 -0.015 -0.08 0 0
184 3 -0.017 -0.079 0 0
185 3 -0.016 -0.079 0 0
186 3 -0.015 -0.079 0 0
87 3 -0.014 -0.08 0 0
88 3 -0.013 -0.08 0 0
187 3 -0.014 -0.079 0 0
188 3 -0.013 -0.079 0 0
89 3 -0.012 -0.08 0 0
90 3 -0.011 -0.08 0 0
91 3 -0.01 -0.08 0 0
189 3 -0.012 -0.079 0 0
190 3 -0.011 -0.079 0 0
191 3 -0.01 -0.079 0 0
92 3 -0.009 -0.08 0 0
93 3 -0.008 -0.08 0 0
192 3 -0.009 -0.079 0 0
193 3 -0.008 -0.079 0 0
94 3 -0.007 -0.08 0 0
95 3 -0.006 -0.08 0 0
96 3 -0.005 -0.08 0 0
194 3 -0.007 -0.079 0 0
195 3 -0.006 -0.079 0 0
196 3 -0.005 -0.079 0 0
97 3 -0.004 -0.08 0 0
98 3 -0.003 -0.08 0 0
197 3 -0.004 -0.079 0 0
198 3 -0.003 -0.079 0 0
99 3 -0.002 -0.08 0 0
100 3 -0.001 -0.08 0 0
6796 3 0 -0.08 0 0
199 3 -0.002 -0.079 0 0
200 3 -0.001 -0.079 0 0
6896 3 0 -0.079 0 0
6797 3 0.001 -0.08 0 0
6798 3 0.002 -0.08 0 0
6898 3 0.002 -0.079 0 0
6897 3 0.001 -0.079 0 0
201 3 -0.1 -0.078 0 0
202 3 -0.099 -0.078 0 0
203 3 -0.098 -0.078 0 0
301 3 -0.1 -0.077 0 0
302 3 -0.099 -0.077 0 0
303 3 -0.098 -0.077 0 0
204 3 -0.097 -0.078 0 0
205 3 -0.096 -0.078 0 0
206 3 -0.095 -0.078 0 0
304 3 -0.097 -0.077 0 0
305 3 -0.096 -0.077 0 0
306 3 -0.095 -0.077 0 0
207 3 -0.094 -0.078 0 0
208 3 -0.093 -0.078 0 0
307 3 -0.094 -0.077 0 0
308 3 -0.093 -0.077 0 0
209 3 -0.092 -0.078 0 0
210 3 -0.091 -0.078 0 0
211 3 -0.09 -0.078 0 0
309 3 -0.092 -0.077 0 0
310 3 -0.091 -0.077 0 0
311 3 -0.09 -0.077 0 0
212 3 -0.089 -0.078 0 0
213 3 -0.088 -0.078 0 0
312 3 -0.089 -0.077 0 0
313 3 -0.088 -0.077 0 0
214 3 -0.087 -0.078 0 0
215 3 -0.086 -0.078 0 0
216 3 -0.085 -0.078 0 0
314 3 -0.087 -0.077 0 0
315 3 -0.086 -0.077 0 0
316 3 -0.085 -0.077 0 0
217 3 -0.084 -0.078 0 0
218 3 -0.083 -0.078 0 0
317 3 -0.084 -0.077 0 0
318 3 -0.083 -0.077 0 0
219 3 -0.082 -0.078 0 0
220 3 -0.081 -0.078 0 0
221 3 -0.08 -0.078 0 0
319 3 -0.082 -0.077 0 0
320 3 -0.081 -0.077 0 0
321 3 -0.08 -0.077 0 0
222 3 -0.079 -0.078 0 0
223 3 -0.078 -0.078 0 0
322 3 -0.079 -0.077 0 0
323 3 -0.078 -0.077 0 0
224 3 -0.077 -0.078 0 0
225 3 -0.076 -0.078 0 0
226 3 -0.075 -0.078 0 0
324 3 -0.077 -0.077 0 0
325 3 -0.076 -0.077 0 0
326 3 -0.075 -0.077 0 0
227 3 -0.074 -0.078 0 0
228 3 -0.073 -0.078 0 0
327 3 -0.074 -0.077 0 0
328 3 -0.073 -0.077 0 0
229 3 -0.072 -0.078 0 0
230 3 -0.071 -0.078 0 0
231 3 -0.07 -0.078 0 0
329 3 -0.072 -0.077 0 0
330 3 -0.071 -0.077 0 0
331 3 -0.07 -0.077 0 0
232 3 -0.069 -0.078 0 0
233 3 -0.068 -0.078 0 0
332 3 -0.069 -0.077 0 0
333 3 -0.068 -0.077 0 0
234 3 -0.067 -0.078 0 0
235 3 -0.066 -0.078 0 0
236 3 -0.065 -0.078 0 0
334 3 -0.067 -0.077 0 0
335 3 -0.066 -0.077 0 0
336 3 -0.065 -0.077 0 0
237 3 -0.064 -0.078 0 0
238 3 -0.063 -0.078 0 0
337 3 -0.064 -0.077 0 0
338 3 -0.063 -0.077 0 0
239 3 -0.062 -0.078 0 0
240 3 -0.061 -0.078 0 0
241 3 -0.06 -0.078 0 0
339 3 -0.062 -0.077 0 0
340 3 -0.061 -0.077 0 0
341 3 -0.06 -0.077 0 0
242 3 -0.059 -0.078 0 0
243 3 -0.058 -0.078 0 0
342 3 -0.059 -0.077 0 0
343 3 -0.058 -0.077 0 0
244 3 -0.057 -0.078 0 0
245 3 -0.056 -0.078 0 0
246 3 -0.055 -0.078 0 0
344 3 -0.057 -0.077 0 0
345 3 -0.056 -0.077 0 0
346 3 -0.055 -0.077 0 0
247 3 -0.054 -0.078 0 0
248 3 -0.053 -0.078 0 0
347 3 -0.054 -0.077 0 0
348 3 -0.053 -0.077 0 0
249 3 -0.052 -0.078 0 0
250 3 -0.051 -0.078 0 0
251 3 -0.05 -0.078 0 0
349 3 -0.052 -0.077 0 0
350 3 -0.051 -0.077 0 0
351 3 -0.05 -0.077 0 0
252 3 -0.049 -0.078 0 0
253 3 -0.048 -0.078 0 0
352 3 -0.049 -0.077 0 0
353 3 -0.048 -0.077 0 0
254 3 -0.047 -0.078 0 0
255 3 -0.046 -0.078 0 0
256 3 -0.045 -0.078 0 0
354 3 -0.047 -0.077 0 0
355 3 -0.046 -0.077 0 0
356 3 -0.045 -0.077 0 0
257 3 -0.044 -0.078 0 0
258 3 -0.043 -0.078 0 0
357 3 -0.044 -0.077 0 0
358 3 -0.043 -0.077 0 0
259 3 -0.042 -0.078 0 0
260 3 -0.041 -0.078 0 0
261 3 -0.04 -0.078 0 0
359 3 -0.042 -0.077 0 0
360 3 -0.041 -0.077 0 0
361 3 -0.04 -0.077 0 0
262 3 -0.039 -0.078 0 0
263 3 -0.038 -0.078 0 0
362 3 -0.039 -0.077 0 0
363 3 -0.038 -0.077 0 0
264 3 -0.037 -0.078 0 0
265 3 -0.036 -0.078 0 0
266 3 -0.035 -0.078 0 0
364 3 -0.037 -0.077 0 0
365 3 -0.036 -0.077 0 0
366 3 -0.035 -0.077 0 0
267 3 -0.034 -0.078 0 0
268 3 -0.033 -0.078 0 0
367 3 -0.034 -0.077 0 0
368 3 -0.033 -0.077 0 0
269 3 -0.032 -0.078 0 0
270 3 -0.031 -0.078 0 0
271 3 -0.03 -0.078 0 0
369 3 -0.032 -0.077 0 0
370 3 -0.031 -0.077 0 0
371 3 -0.03 -0.077 0 0
272 3 -0.029 -0.078 0 0
273 3 -0.028 -0.078 0 0
372 3 -0.029 -0.077 0 0
373 3 -0.028 -0.077 0 0
274 3 -0.027 -0.078 0 0
275 3 -0.026 -0.078 0 0
276 3 -0.025 -0.078 0 0
374 3 -0.027 -0.077 0 0
375 3 -0.026 -0.077 0 0
376 3 -0.025 -0.077 0 0
277 3 -0.024 -0.078 0 0
278 3 -0.023 -0.078 0 0
377 3 -0.024 -0.077 0 0
378 3 -0.023 -0.077 0 0
381 3 -0.02 -0.077 0 0
380 3 -0.021 -0.077 0 0
279 3 -0.022 -0.078 0 0
280 3 -0.021 -0.078 0 0
281 3 -0.02 -0.078 0 0
379 3 -0.022 -0.077 0 0
383 3 -0.018 -0.077 0 0
382 3 -0.019 -0.077 0 0
283 3 -0.018 -0.078 0 0
282 3 -0.019 -0.078 0 0
386 3 -0.015 -0.077 0 0
385 3 -0.016 -0.077 0 0
384 3 -0.017 -0.077 0 0
286 3 -0.015 -0.078 0 0
285 3 -0.016 -0.078 0 0
284 3 -0.017 -0.078 0 0
388 3 -0.013 -0.077 0 0
387 3 -0.014 -0.077 0 0
288 3 -0.013 -0.078 0 0
287 3 -0.014 -0.078 0 0
391 3 -0.01 -0.077 0 0
390 3 -0.011 -0.077 0 0
389 3 -0.012 -0.077 0 0
291 3 -0.01 -0.078 0 0
290 3 -0.011 -0.078 0 0
289 3 -0.012 -0.078 0 0
393 3 -0.008 -0.077 0 0
392 3 -0.009 -0.077 0 0
293 3 -0.008 -0.078 0 0
292 3 -0.009 -0.078 0 0
5230 1 -0.00827702 -0.0771734 91.9473 4192.87
396 3 -0.005 -0.077 0 0
395 3 -0.006 -0.077 0 0
394 3 -0.007 -0.077 0 0
296 3 -0.005 -0.078 0 0
295 3 -0.006 -0.078 0 0
294 3 -0.007 -0.078 0 0
398 3 -0.003 -0.077 0 0
397 3 -0.004 -0.077 0 0
298 3 -0.003 -0.078 0 0
297 3 -0.004 -0.078 0 0
299 3 -0.002 -0.078 0 0
7096 3 0 -0.077 0 0
400 3 -0.001 -0.077 0 0
399 3 -0.002 -0.077 0 0
6996 3 0 -0.078 0 0
300 3 -0.001 -0.078 0 0
7098 3 0.002 -0.077 0 0
7097 3 0.001 -0.077 0 0
6998 3 0.002 -0.078 0 0
6997 3 0.001 -0.078 0 0
401 3 -0.1 -0.076 0 0
402 3 -0.099 -0.076 0 0
403 3 -0.098 -0.076 0 0
501 3 -0.1 -0.075 0 0
502 3 -0.099 -0.075 0 0
503 3 -0.098 -0.075 0 0
601 3 -0.1 -0.074 0 0
602 3 -0.099 -0.074 0 0
603 3 -0.098 -0.074 0 0
404 3 -0.097 -0.076 0 0
405 3 -0.096 -0.076 0 0
406 3 -0.095 -0.076 0 0
504 3 -0.097 -0.075 0 0
505 3 -0.096 -0.075 0 0
506 3 -0.095 -0.075 0 0
604 3 -0.097 -0.074 0 0
605 3 -0.096 -0.074 0 0
606 3 -0.095 -0.074 0 0
407 3 -0.094 -0.076 0 0
408 3 -0.093 -0.076 0 0
507 3 -0.094 -0.075 0 0
508 3 -0.093 -0.075 0 0
607 3 -0.094 -0.074 0 0
608 3 -0.093 -0.074 0 0
409 3 -0.092 -0.076 0 0
410 3 -0.091 -0.076 0 0
411 3 -0.09 -0.076 0 0
509 3 -0.092 -0.075 0 0
510 3 -0.091 -0.075 0 0
511 3 -0.09 -0.075 0 0
609 3 -0.092 -0.074 0 0
610 3 -0.091 -0.074 0 0
611 3 -0.09 -0.074 0 0
412 3 -0.089 -0.076 0 0
413 3 -0.088 -0.076 0 0
512 3 -0.089 -0.075 0 0
513 3 -0.088 -0.075 0 0
612 3 -0.089 -0.074 0 0
613 3 -0.088 -0.074 0 0
414 3 -0.087 -0.076 0 0
415 3 -0.086 -0.076 0 0
416 3 -0.085 -0.076 0 0
514 3 -0.087 -0.075 0 0
515 3 -0.086 -0.075 0 0
516 3 -0.085 -0.075 0 0
614 3 -0.087 -0.074 0 0
615 3 -0.086 -0.074 0 0
616 3 -0.085 -0.074 0 0
417 3 -0.084 -0.076 0 0
418 3 -0.083 -0.076 0 0
517 3 -0.084 -0.075 0 0
518 3 -0.083 -0.075 0 0
617 3 -0.084 -0.074 0 0
618 3 -0.083 -0.074 0 0
419 3 -0.082 -0.076 0 0
420 3 -0.081 -0.076 0 0
421 3 -0.08 -0.076 0 0
519 3 -0.082 -0.075 0 0
520 3 -0.081 -0.075 0 0
521 3 -0.08 -0.075 0 0
619 3 -0.082 -0.074 0 0
620 3 -0.081 -0.074 0 0
621 3 -0.08 -0.074 0 0
422 3 -0.079 -0.076 0 0
423 3 -0.078 -0.076 0 0
522 3 -0.079 -0.075 0 0
523 3 -0.078 -0.075 0 0
622 3 -0.079 -0.074 0 0
623 3 -0.078 -0.074 0 0
424 3 -0.077 -0.076 0 0
425 3 -0.076 -0.076 0 0
426 3 -0.075 -0.076 0 0
524 3 -0.077 -0.075 0 0
525 3 -0.076 -0.075 0 0
526 3 -0.075 -0.075 0 0
624 3 -0.077 -0.074 0 0
625 3 -0.076 -0.074 0 0
626 3 -0.075 -0.074 0 0
427 3 -0.074 -0.076 0 0
428 3 -0.073 -0.076 0 0
527 3 -0.074 -0.075 0 0
528 3 -0.073 -0.075 0 0
627 3 -0.074 -0.074 0 0
628 3 -0.073 -0.074 0 0
9455 1 -0.0703731 -0.0735766 451.43 1740.51
429 3 -0.072 -0.076 0 0
430 3 -0.071 -0.076 0 0
431 3 -0.07 -0.076 0 0
529 3 -0.072 -0.075 0 0
530 3 -0.071 -0.075 0 0
531 3 -0.07 -0.075 0 0
629 3 -0.072 -0.074 0 0
630 3 -0.071 -0.074 0 0
631 3 -0.07 -0.074 0 0
432 3 -0.069 -0.076 0 0
433 3 -0.068 -0.076 0 0
532 3 -0.069 -0.075 0 0
533 3 -0.068 -0.075 0 0
632 3 -0.069 -0.074 0 0
633 3 -0.068 -0.074 0 0
1163 1 -0.0649 -0.0745459 57.8544 -425.03
434 3 -0.067 -0.076 0 0
435 3 -0.066 -0.076 0 0
436 3 -0.065 -0.076 0 0
534 3 -0.067 -0.075 0 0
535 3 -0.066 -0.075 0 0
536 3 -0.065 -0.075 0 0
634 3 -0.067 -0.074 0 0
635 3 -0.066 -0.074 0 0
636 3 -0.065 -0.074 0 0
437 3 -0.064 -0.076 0 0
438 3 -0.063 -0.076 0 0
537 3 -0.064 -0.075 0 0
538 3 -0.063 -0.075 0 0
637 3 -0.064 -0.074 0 0
638 3 -0.063 -0.074 0 0
439 3 -0.062 -0.076 0 0
440 3 -0.061 -0.076 0 0
441 3 -0.06 -0.076 0 0
539 3 -0.062 -0.075 0 0
540 3 -0.061 -0.075 0 0
541 3 -0.06 -0.075 0 0
639 3 -0.062 -0.074 0 0
640 3 -0.061 -0.074 0 0
641 3 -0.06 -0.074 0 0
442 3 -0.059 -0.076 0 0
443 3 -0.058 -0.076 0 0
542 3 -0.059 -0.075 0 0
543 3 -0.058 -0.075 0 0
642 3 -0.059 -0.074 0 0
643 3 -0.058 -0.074 0 0
444 3 -0.057 -0.076 0 0
445 3 -0.056 -0.076 0 0
446 3 -0.055 -0.076 0 0
544 3 -0.057 -0.075 0 0
545 3 -0.056 -0.075 0 0
546 3 -0.055 -0.075 0 0
644 3 -0.057 -0.074 0 0
645 3 -0.056 -0.074 0 0
646 3 -0.055 -0.074 0 0
447 3 -0.054 -0.076 0 0
448 3 -0.053 -0.076 0 0
547 3 -0.054 -0.075 0 0
548 3 -0.053 -0.075 0 0
647 3 -0.054 -0.074 0 0
648 3 -0.053 -0.074 0 0
449 3 -0.052 -0.076 0 0
450 3 -0.051 -0.076 0 0
451 3 -0.05 -0.076 0 0
549 3 -0.052 -0.075 0 0
550 3 -0.051 -0.075 0 0
551 3 -0.05 -0.075 0 0
649 3 -0.052 -0.074 0 0
650 3 -0.051 -0.074 0 0
651 3 -0.05 -0.074 0 0
452 3 -0.049 -0.076 0 0
453 3 -0.048 -0.076 0 0
552 3 -0.049 -0.075 0 0
553 3 -0.048 -0.075 0 0
652 3 -0.049 -0.074 0 0
653 3 -0.048 -0.074 0 0
454 3 -0.047 -0.076 0 0
455 3 -0.046 -0.076 0 0
456 3 -0.045 -0.076 0 0
554 3 -0.047 -0.075 0 0
555 3 -0.046 -0.075 0 0
556 3 -0.045 -0.075 0 0
654 3 -0.047 -0.074 0 0
655 3 -0.046 -0.074 0 0
656 3 -0.045 -0.074 0 0
457 3 -0.044 -0.076 0 0
458 3 -0.043 -0.076 0 0
557 3 -0.044 -0.075 0 0
558 3 -0.043 -0.075 0 0
657 3 -0.044 -0.074 0 0
658 3 -0.043 -0.074 0 0
459 3 -0.042 -0.076 0 0
460 3 -0.041 -0.076 0 0
461 3 -0.04 -0.076 0 0
559 3 -0.042 -0.075 0 0
560 3 -0.041 -0.075 0 0
561 3 -0.04 -0.075 0 0
659 3 -0.042 -0.074 0 0
660 3 -0.041 -0.074 0 0
661 3 -0.04 -0.074 0 0
663 3 -0.038 -0.074 0 0
662 3 -0.039 -0.074 0 0
563 3 -0.038 -0.075 0 0
562 3 -0.039 -0.075 0 0
462 3 -0.039 -0.076 0 0
463 3 -0.038 -0.076 0 0
666 3 -0.035 -0.074 0 0
665 3 -0.036 -0.074 0 0
664 3 -0.037 -0.074 0 0
566 3 -0.035 -0.075 0 0
565 3 -0.036 -0.075 0 0
564 3 -0.037 -0.075 0 0
464 3 -0.037 -0.076 0 0
465 3 -0.036 -0.076 0 0
466 3 -0.035 -0.076 0 0
668 3 -0.033 -0.074 0 0
667 3 -0.034 -0.074 0 0
568 3 -0.033 -0.075 0 0
567 3 -0.034 -0.075 0 0
467 3 -0.034 -0.076 0 0
468 3 -0.033 -0.076 0 0
671 3 -0.03 -0.074 0 0
670 3 -0.031 -0.074 0 0
669 3 -0.032 -0.074 0 0
571 3 -0.03 -0.075 0 0
570 3 -0.031 -0.075 0 0
569 3 -0.032 -0.075 0 0
469 3 -0.032 -0.076 0 0
470 3 -0.031 -0.076 0 0
471 3 -0.03 -0.076 0 0
673 3 -0.028 -0.074 0 0
672 3 -0.029 -0.074 0 0
573 3 -0.028 -0.075 0 0
572 3 -0.029 -0.075 0 0
472 3 -0.029 -0.076 0 0
473 3 -0.028 -0.076 0 0
676 3 -0.025 -0.074 0 0
675 3 -0.026 -0.074 0 0
674 3 -0.027 -0.074 0 0
576 3 -0.025 -0.075 0 0
575 3 -0.026 -0.075 0 0
574 3 -0.027 -0.075 0 0
474 3 -0.027 -0.076 0 0
475 3 -0.026 -0.076 0 0
476 3 -0.025 -0.076 0 0
678 3 -0.023 -0.074 0 0
677 3 -0.024 -0.074 0 0
578 3 -0.023 -0.075 0 0
577 3 -0.024 -0.075 0 0
477 3 -0.024 -0.076 0 0
478 3 -0.023 -0.076 0 0
12687 1 -0.0217406 -0.0740453 384233 -1.02642e+06
1741 1 -0.0212959 -0.0752413 -379447 1.01777e+06
481 3 -0.02 -0.076 0 0
681 3 -0.02 -0.074 0 0
680 3 -0.021 -0.074 0 0
679 3 -0.022 -0.074 0 0
581 3 -0.02 -0.075 0 0
580 3 -0.021 -0.075 0 0
579 3 -0.022 -0.075 0 0
480 3 -0.021 -0.076 0 0
479 3 -0.022 -0.076 0 0
483 3 -0.018 -0.076 0 0
482 3 -0.019 -0.076 0 0
683 3 -0.018 -0.074 0 0
682 3 -0.019 -0.074 0 0
583 3 -0.018 -0.075 0 0
582 3 -0.019 -0.075 0 0
486 3 -0.015 -0.076 0 0
485 3 -0.016 -0.076 0 0
484 3 -0.017 -0.076 0 0
686 3 -0.015 -0.074 0 0
685 3 -0.016 -0.074 0 0
684 3 -0.017 -0.074 0 0
586 3 -0.015 -0.075 0 0
585 3 -0.016 -0.075 0 0
584 3 -0.017 -0.075 0 0
1761 1 -0.0130743 -0.074805 2404.43 -3360.8
488 3 -0.013 -0.076 0 0
487 3 -0.014 -0.076 0 0
688 3 -0.013 -0.074 0 0
687 3 -0.014 -0.074 0 0
588 3 -0.013 -0.075 0 0
587 3 -0.014 -0.075 0 0
491 3 -0.01 -0.076 0 0
490 3 -0.011 -0.076 0 0
489 3 -0.012 -0.076 0 0
691 3 -0.01 -0.074 0 0
690 3 -0.011 -0.074 0 0
689 3 -0.012 -0.074 0 0
591 3 -0.01 -0.075 0 0
590 3 -0.011 -0.075 0 0
589 3 -0.012 -0.075 0 0
10684 1 -0.00937366 -0.0738124 1337.49 -306.86
493 3 -0.008 -0.076 0 0
492 3 -0.009 -0.076 0 0
693 3 -0.008 -0.074 0 0
692 3 -0.009 -0.074 0 0
593 3 -0.008 -0.075 0 0
592 3 -0.009 -0.075 0 0
496 3 -0.005 -0.076 0 0
495 3 -0.006 -0.076 0 0
494 3 -0.007 -0.076 0 0
696 3 -0.005 -0.074 0 0
695 3 -0.006 -0.074 0 0
694 3 -0.007 -0.074 0 0
596 3 -0.005 -0.075 0 0
595 3 -0.006 -0.075 0 0
594 3 -0.007 -0.075 0 0
498 3 -0.003 -0.076 0 0
497 3 -0.004 -0.076 0 0
698 3 -0.003 -0.074 0 0
697 3 -0.004 -0.074 0 0
598 3 -0.003 -0.075 0 0
597 3 -0.004 -0.075 0 0
7396 3 0 -0.074 0 0
700 3 -0.001 -0.074 0 0
699 3 -0.002 -0.074 0 0
7296 3 0 -0.075 0 0
600 3 -0.001 -0.075 0 0
599 3 -0.002 -0.075 0 0
7196 3 0 -0.076 0 0
500 3 -0.001 -0.076 0 0
499 3 -0.002 -0.076 0 0
7398 3 0.002 -0.074 0 0
7397 3 0.001 -0.074 0 0
7298 3 0.002 -0.075 0 0
7297 3 0.001 -0.075 0 0
7198 3 0.002 -0.076 0 0
7197 3 0.001 -0.076 0 0
701 3 -0.1 -0.073 0 0
702 3 -0.099 -0.073 0 0
703 3 -0.098 -0.073 0 0
801 3 -0.1 -0.072 0 0
802 3 -0.099 -0.072 0 0
803 3 -0.098 -0.072 0 0
704 3 -0.097 -0.073 0 0
705 3 -0.096 -0.073 0 0
706 3 -0.095 -0.073 0 0
804 3 -0.097 -0.072 0 0
805 3 -0.096 -0.072 0 0
806 3 -0.095 -0.072 0 0
2025 1 -0.0941522 -0.0718858 -156.611 -299.934
808 3 -0.093 -0.072 0 0
707 3 -0.094 -0.073 0 0
708 3 -0.093 -0.073 0 0
807 3 -0.094 -0.072 0 0
811 3 -0.09 -0.072 0 0
810 3 -0.091 -0.072 0 0
809 3 -0.092 -0.072 0 0
711 3 -0.09 -0.073 0 0
710 3 -0.091 -0.073 0 0
709 3 -0.092 -0.073 0 0
813 3 -0.088 -0.072 0 0
812 3 -0.089 -0.072 0 0
713 3 -0.088 -0.073 0 0
712 3 -0.089 -0.073 0 0
816 3 -0.085 -0.072 0 0
815 3 -0.086 -0.072 0 0
814 3 -0.087 -0.072 0 0
716 3 -0.085 -0.073 0 0
715 3 -0.086 -0.073 0 0
714 3 -0.087 -0.073 0 0
3093 1 -0.0847967 -0.0734033 -88.9 -120.67
818 3 -0.083 -0.072 0 0
817 3 -0.084 -0.072 0 0
718 3 -0.083 -0.073 0 0
717 3 -0.084 -0.073 0 0
821 3 -0.08 -0.072 0 0
820 3 -0.081 -0.072 0 0
819 3 -0.082 -0.072 0 0
721 3 -0.08 -0.073 0 0
720 3 -0.081 -0.073 0 0
719 3 -0.082 -0.073 0 0
823 3 -0.078 -0.072 0 0
822 3 -0.079 -0.072 0 0
723 3 -0.078 -0.073 0 0
722 3 -0.079 -0.073 0 0
826 3 -0.075 -0.072 0 0
825 3 -0.076 -0.072 0 0
824 3 -0.077 -0.072 0 0
726 3 -0.075 -0.073 0 0
725 3 -0.076 -0.073 0 0
724 3 -0.077 -0.073 0 0
828 3 -0.073 -0.072 0 0
827 3 -0.074 -0.072 0 0
728 3 -0.073 -0.073 0 0
727 3 -0.074 -0.073 0 0
831 3 -0.07 -0.072 0 0
830 3 -0.071 -0.072 0 0
829 3 -0.072 -0.072 0 0
731 3 -0.07 -0.073 0 0
730 3 -0.071 -0.073 0 0
729 3 -0.072 -0.073 0 0
833 3 -0.068 -0.072 0 0
832 3 -0.069 -0.072 0 0
733 3 -0.068 -0.073 0 0
732 3 -0.069 -0.073 0 0
836 3 -0.065 -0.072 0 0
835 3 -0.066 -0.072 0 0
834 3 -0.067 -0.072 0 0
736 3 -0.065 -0.073 0 0
735 3 -0.066 -0.073 0 0
734 3 -0.067 -0.073 0 0
838 3 -0.063 -0.072 0 0
837 3 -0.064 -0.072 0 0
738 3 -0.063 -0.073 0 0
737 3 -0.064 -0.073 0 0
841 3 -0.06 -0.072 0 0
840 3 -0.061 -0.072 0 0
839 3 -0.062 -0.072 0 0
741 3 -0.06 -0.073 0 0
740 3 -0.061 -0.073 0 0
739 3 -0.062 -0.073 0 0
843 3 -0.058 -0.072 0 0
842 3 -0.059 -0.072 0 0
743 3 -0.058 -0.073 0 0
742 3 -0.059 -0.073 0 0
846 3 -0.055 -0.072 0 0
845 3 -0.056 -0.072 0 0
844 3 -0.057 -0.072 0 0
746 3 -0.055 -0.073 0 0
745 3 -0.056 -0.073 0 0
744 3 -0.057 -0.073 0 0
848 3 -0.053 -0.072 0 0
847 3 -0.054 -0.072 0 0