ITEM: TIME
1.99
ITEM: TIMESTEP
199000
ITEM: NUMBER OF ATOMS
3578
ITEM: BOX BOUNDS pp pp pp
-1.0000000000000001e-01 1.0000000000000001e-01
-2.0000000000000001e-01 1.1000000000000000e-01
-1.0000000000000000e-02 1.0000000000000000e-02
ITEM: ATOMS id type x y vx vy
6151 1 -0.05 -0.1975 0 -0.15
6152 1 -0.049 -0.1975 0 -0.15
6153 1 -0.048 -0.1975 0 -0.15
6154 1 -0.047 -0.1975 0 -0.15
6155 1 -0.046 -0.1975 0 -0.15
6156 1 -0.045 -0.1975 0 -0.15
6157 1 -0.044 -0.1975 0 -0.15
6158 1 -0.043 -0.1975 0 -0.15
6159 1 -0.042 -0.1975 0 -0.15
6160 1 -0.041 -0.1975 0 -0.15
6161 1 -0.04 -0.1975 0 -0.15
6162 1 -0.039 -0.1975 0 -0.15
6163 1 -0.038 -0.1975 0 -0.15
6164 1 -0.037 -0.1975 0 -0.15
6165 1 -0.036 -0.1975 0 -0.15
6166 1 -0.035 -0.1975 0 -0.15
6167 1 -0.034 -0.1975 0 -0.15
6168 1 -0.033 -0.1975 0 -0.15
6169 1 -0.032 -0.1975 0 -0.15
6170 1 -0.031 -0.1975 0 -0.15
6171 1 -0.03 -0.1975 0 -0.15
6172 1 -0.029 -0.1975 0 -0.15
6173 1 -0.028 -0.1975 0 -0.15
6174 1 -0.027 -0.1975 0 -0.15
6175 1 -0.026 -0.1975 0 -0.15
6176 1 -0.025 -0.1975 0 -0.15
6177 1 -0.024 -0.1975 0 -0.15
6178 1 -0.023 -0.1975 0 -0.15
6179 1 -0.022 -0.1975 0 -0.15
6180 1 -0.021 -0.1975 0 -0.15
6181 1 -0.02 -0.1975 0 -0.15
6182 1 -0.019 -0.1975 0 -0.15
6183 1 -0.018 -0.1975 0 -0.15
6184 1 -0.017 -0.1975 0 -0.15
6185 1 -0.016 -0.1975 0 -0.15
6186 1 -0.015 -0.1975 0 -0.15
6187 1 -0.014 -0.1975 0 -0.15
6188 1 -0.013 -0.1975 0 -0.15
6189 1 -0.012 -0.1975 0 -0.15
6190 1 -0.011 -0.1975 0 -0.15
6191 1 -0.01 -0.1975 0 -0.15
6192 1 -0.009 -0.1975 0 -0.15
6193 1 -0.008 -0.1975 0 -0.15
6194 1 -0.007 -0.1975 0 -0.15
6195 1 -0.006 -0.1975 0 -0.15
6196 1 -0.005 -0.1975 0 -0.15
6197 1 -0.004 -0.1975 0 -0.15
6198 1 -0.003 -0.1975 0 -0.15
10548 2 -0.0937116 -0.195675 -3.92458 -3.83513
6201 1 -0.05 -0.1965 0 -0.15
6251 1 -0.05 -0.1955 0 -0.15
6202 1 -0.049 -0.1965 0 -0.15
6203 1 -0.048 -0.1965 0 -0.15
6252 1 -0.049 -0.1955 0 -0.15
6253 1 -0.048 -0.1955 0 -0.15
6204 1 -0.047 -0.1965 0 -0.15
6205 1 -0.046 -0.1965 0 -0.15
6206 1 -0.045 -0.1965 0 -0.15
6254 1 -0.047 -0.1955 0 -0.15
6255 1 -0.046 -0.1955 0 -0.15
6256 1 -0.045 -0.1955 0 -0.15
6207 1 -0.044 -0.1965 0 -0.15
6208 1 -0.043 -0.1965 0 -0.15
6257 1 -0.044 -0.1955 0 -0.15
6258 1 -0.043 -0.1955 0 -0.15
6209 1 -0.042 -0.1965 0 -0.15
6210 1 -0.041 -0.1965 0 -0.15
6211 1 -0.04 -0.1965 0 -0.15
6259 1 -0.042 -0.1955 0 -0.15
6260 1 -0.041 -0.1955 0 -0.15
6261 1 -0.04 -0.1955 0 -0.15
6212 1 -0.039 -0.1965 0 -0.15
6213 1 -0.038 -0.1965 0 -0.15
6262 1 -0.039 -0.1955 0 -0.15
6263 1 -0.038 -0.1955 0 -0.15
6214 1 -0.037 -0.1965 0 -0.15
6215 1 -0.036 -0.1965 0 -0.15
6216 1 -0.035 -0.1965 0 -0.15
6264 1 -0.037 -0.1955 0 -0.15
6265 1 -0.036 -0.1955 0 -0.15
6266 1 -0.035 -0.1955 0 -0.15
6217 1 -0.034 -0.1965 0 -0.15
6218 1 -0.033 -0.1965 0 -0.15
6267 1 -0.034 -0.1955 0 -0.15
6268 1 -0.033 -0.1955 0 -0.15
6219 1 -0.032 -0.1965 0 -0.15
6220 1 -0.031 -0.1965 0 -0.15
6221 1 -0.03 -0.1965 0 -0.15
6269 1 -0.032 -0.1955 0 -0.15
6270 1 -0.031 -0.1955 0 -0.15
6271 1 -0.03 -0.1955 0 -0.15
6222 1 -0.029 -0.1965 0 -0.15
6223 1 -0.028 -0.1965 0 -0.15
6272 1 -0.029 -0.1955 0 -0.15
6273 1 -0.028 -0.1955 0 -0.15
6224 1 -0.027 -0.1965 0 -0.15
6225 1 -0.026 -0.1965 0 -0.15
6226 1 -0.025 -0.1965 0 -0.15
6274 1 -0.027 -0.1955 0 -0.15
6275 1 -0.026 -0.1955 0 -0.15
6276 1 -0.025 -0.1955 0 -0.15
6227 1 -0.024 -0.1965 0 -0.15
6228 1 -0.023 -0.1965 0 -0.15
6277 1 -0.024 -0.1955 0 -0.15
6278 1 -0.023 -0.1955 0 -0.15
6229 1 -0.022 -0.1965 0 -0.15
6230 1 -0.021 -0.1965 0 -0.15
6231 1 -0.02 -0.1965 0 -0.15
6279 1 -0.022 -0.1955 0 -0.15
6280 1 -0.021 -0.1955 0 -0.15
6281 1 -0.02 -0.1955 0 -0.15
6232 1 -0.019 -0.1965 0 -0.15
6233 1 -0.018 -0.1965 0 -0.15
6282 1 -0.019 -0.1955 0 -0.15
6283 1 -0.018 -0.1955 0 -0.15
6234 1 -0.017 -0.1965 0 -0.15
6235 1 -0.016 -0.1965 0 -0.15
6236 1 -0.015 -0.1965 0 -0.15
6284 1 -0.017 -0.1955 0 -0.15
6285 1 -0.016 -0.1955 0 -0.15
6286 1 -0.015 -0.1955 0 -0.15
6237 1 -0.014 -0.1965 0 -0.15
6238 1 -0.013 -0.1965 0 -0.15
6287 1 -0.014 -0.1955 0 -0.15
6288 1 -0.013 -0.1955 0 -0.15
6239 1 -0.012 -0.1965 0 -0.15
6240 1 -0.011 -0.1965 0 -0.15
6241 1 -0.01 -0.1965 0 -0.15
6289 1 -0.012 -0.1955 0 -0.15
6290 1 -0.011 -0.1955 0 -0.15
6291 1 -0.01 -0.1955 0 -0.15
6242 1 -0.009 -0.1965 0 -0.15
6243 1 -0.008 -0.1965 0 -0.15
6292 1 -0.009 -0.1955 0 -0.15
6293 1 -0.008 -0.1955 0 -0.15
6244 1 -0.007 -0.1965 0 -0.15
6245 1 -0.006 -0.1965 0 -0.15
6246 1 -0.005 -0.1965 0 -0.15
6294 1 -0.007 -0.1955 0 -0.15
6295 1 -0.006 -0.1955 0 -0.15
6296 1 -0.005 -0.1955 0 -0.15
6247 1 -0.004 -0.1965 0 -0.15
6297 1 -0.004 -0.1955 0 -0.15
6298 1 -0.003 -0.1955 0 -0.15
6248 1 -0.003 -0.1965 0 -0.15
6301 1 -0.05 -0.1945 0 -0.15
6351 1 -0.05 -0.1935 0 -0.15
6401 1 -0.05 -0.1925 0 -0.15
6302 1 -0.049 -0.1945 0 -0.15
6303 1 -0.048 -0.1945 0 -0.15
6352 1 -0.049 -0.1935 0 -0.15
6353 1 -0.048 -0.1935 0 -0.15
6402 1 -0.049 -0.1925 0 -0.15
6403 1 -0.048 -0.1925 0 -0.15
6304 1 -0.047 -0.1945 0 -0.15
6305 1 -0.046 -0.1945 0 -0.15
6306 1 -0.045 -0.1945 0 -0.15
6354 1 -0.047 -0.1935 0 -0.15
6355 1 -0.046 -0.1935 0 -0.15
6356 1 -0.045 -0.1935 0 -0.15
6404 1 -0.047 -0.1925 0 -0.15
6405 1 -0.046 -0.1925 0 -0.15
6406 1 -0.045 -0.1925 0 -0.15
6307 1 -0.044 -0.1945 0 -0.15
6308 1 -0.043 -0.1945 0 -0.15
6357 1 -0.044 -0.1935 0 -0.15
6358 1 -0.043 -0.1935 0 -0.15
6407 1 -0.044 -0.1925 0 -0.15
6408 1 -0.043 -0.1925 0 -0.15
6309 1 -0.042 -0.1945 0 -0.15
6310 1 -0.041 -0.1945 0 -0.15
6311 1 -0.04 -0.1945 0 -0.15
6359 1 -0.042 -0.1935 0 -0.15
6360 1 -0.041 -0.1935 0 -0.15
6361 1 -0.04 -0.1935 0 -0.15
6409 1 -0.042 -0.1925 0 -0.15
6410 1 -0.041 -0.1925 0 -0.15
6411 1 -0.04 -0.1925 0 -0.15
6312 1 -0.039 -0.1945 0 -0.15
6313 1 -0.038 -0.1945 0 -0.15
6362 1 -0.039 -0.1935 0 -0.15
6363 1 -0.038 -0.1935 0 -0.15
6412 1 -0.039 -0.1925 0 -0.15
6413 1 -0.038 -0.1925 0 -0.15
6314 1 -0.037 -0.1945 0 -0.15
6315 1 -0.036 -0.1945 0 -0.15
6316 1 -0.035 -0.1945 0 -0.15
6364 1 -0.037 -0.1935 0 -0.15
6365 1 -0.036 -0.1935 0 -0.15
6366 1 -0.035 -0.1935 0 -0.15
6414 1 -0.037 -0.1925 0 -0.15
6415 1 -0.036 -0.1925 0 -0.15
6416 1 -0.035 -0.1925 0 -0.15
6317 1 -0.034 -0.1945 0 -0.15
6318 1 -0.033 -0.1945 0 -0.15
6367 1 -0.034 -0.1935 0 -0.15
6368 1 -0.033 -0.1935 0 -0.15
6417 1 -0.034 -0.1925 0 -0.15
6418 1 -0.033 -0.1925 0 -0.15
6319 1 -0.032 -0.1945 0 -0.15
6320 1 -0.031 -0.1945 0 -0.15
6321 1 -0.03 -0.1945 0 -0.15
6369 1 -0.032 -0.1935 0 -0.15
6370 1 -0.031 -0.1935 0 -0.15
6371 1 -0.03 -0.1935 0 -0.15
6419 1 -0.032 -0.1925 0 -0.15
6420 1 -0.031 -0.1925 0 -0.15
6421 1 -0.03 -0.1925 0 -0.15
6322 1 -0.029 -0.1945 0 -0.15
6323 1 -0.028 -0.1945 0 -0.15
6372 1 -0.029 -0.1935 0 -0.15
6373 1 -0.028 -0.1935 0 -0.15
6422 1 -0.029 -0.1925 0 -0.15
6423 1 -0.028 -0.1925 0 -0.15
6324 1 -0.027 -0.1945 0 -0.15
6325 1 -0.026 -0.1945 0 -0.15
6326 1 -0.025 -0.1945 0 -0.15
6374 1 -0.027 -0.1935 0 -0.15
6375 1 -0.026 -0.1935 0 -0.15
6376 1 -0.025 -0.1935 0 -0.15
6424 1 -0.027 -0.1925 0 -0.15
6425 1 -0.026 -0.1925 0 -0.15
6426 1 -0.025 -0.1925 0 -0.15
6327 1 -0.024 -0.1945 0 -0.15
6328 1 -0.023 -0.1945 0 -0.15
6377 1 -0.024 -0.1935 0 -0.15
6378 1 -0.023 -0.1935 0 -0.15
6427 1 -0.024 -0.1925 0 -0.15
6428 1 -0.023 -0.1925 0 -0.15
6329 1 -0.022 -0.1945 0 -0.15
6330 1 -0.021 -0.1945 0 -0.15
6331 1 -0.02 -0.1945 0 -0.15
6379 1 -0.022 -0.1935 0 -0.15
6380 1 -0.021 -0.1935 0 -0.15
6381 1 -0.02 -0.1935 0 -0.15
6429 1 -0.022 -0.1925 0 -0.15
6430 1 -0.021 -0.1925 0 -0.15
6431 1 -0.02 -0.1925 0 -0.15
6332 1 -0.019 -0.1945 0 -0.15
6333 1 -0.018 -0.1945 0 -0.15
6382 1 -0.019 -0.1935 0 -0.15
6383 1 -0.018 -0.1935 0 -0.15
6432 1 -0.019 -0.1925 0 -0.15
6433 1 -0.018 -0.1925 0 -0.15
6334 1 -0.017 -0.1945 0 -0.15
6335 1 -0.016 -0.1945 0 -0.15
6336 1 -0.015 -0.1945 0 -0.15
6384 1 -0.017 -0.1935 0 -0.15
6385 1 -0.016 -0.1935 0 -0.15
6386 1 -0.015 -0.1935 0 -0.15
6434 1 -0.017 -0.1925 0 -0.15
6435 1 -0.016 -0.1925 0 -0.15
6436 1 -0.015 -0.1925 0 -0.15
6337 1 -0.014 -0.1945 0 -0.15
6338 1 -0.013 -0.1945 0 -0.15
6387 1 -0.014 -0.1935 0 -0.15
6388 1 -0.013 -0.1935 0 -0.15
6437 1 -0.014 -0.1925 0 -0.15
6438 1 -0.013 -0.1925 0 -0.15
6339 1 -0.012 -0.1945 0 -0.15
6340 1 -0.011 -0.1945 0 -0.15
6341 1 -0.01 -0.1945 0 -0.15
6389 1 -0.012 -0.1935 0 -0.15
6390 1 -0.011 -0.1935 0 -0.15
6391 1 -0.01 -0.1935 0 -0.15
6439 1 -0.012 -0.1925 0 -0.15
6440 1 -0.011 -0.1925 0 -0.15
6441 1 -0.01 -0.1925 0 -0.15
6342 1 -0.009 -0.1945 0 -0.15
6343 1 -0.008 -0.1945 0 -0.15
6392 1 -0.009 -0.1935 0 -0.15
6393 1 -0.008 -0.1935 0 -0.15
6442 1 -0.009 -0.1925 0 -0.15
6443 1 -0.008 -0.1925 0 -0.15
6344 1 -0.007 -0.1945 0 -0.15
6345 1 -0.006 -0.1945 0 -0.15
6346 1 -0.005 -0.1945 0 -0.15
6394 1 -0.007 -0.1935 0 -0.15
6395 1 -0.006 -0.1935 0 -0.15
6396 1 -0.005 -0.1935 0 -0.15
6444 1 -0.007 -0.1925 0 -0.15
6445 1 -0.006 -0.1925 0 -0.15
6446 1 -0.005 -0.1925 0 -0.15
6347 1 -0.004 -0.1945 0 -0.15
6397 1 -0.004 -0.1935 0 -0.15
6447 1 -0.004 -0.1925 0 -0.15
6348 1 -0.003 -0.1945 0 -0.15
6398 1 -0.003 -0.1935 0 -0.15
6448 1 -0.003 -0.1925 0 -0.15
6451 1 -0.05 -0.1915 0 -0.15
6501 1 -0.05 -0.1905 0 -0.15
6452 1 -0.049 -0.1915 0 -0.15
6453 1 -0.048 -0.1915 0 -0.15
6502 1 -0.049 -0.1905 0 -0.15
6503 1 -0.048 -0.1905 0 -0.15
6454 1 -0.047 -0.1915 0 -0.15
6455 1 -0.046 -0.1915 0 -0.15
6456 1 -0.045 -0.1915 0 -0.15
6504 1 -0.047 -0.1905 0 -0.15
6505 1 -0.046 -0.1905 0 -0.15
6506 1 -0.045 -0.1905 0 -0.15
6457 1 -0.044 -0.1915 0 -0.15
6458 1 -0.043 -0.1915 0 -0.15
6507 1 -0.044 -0.1905 0 -0.15
6508 1 -0.043 -0.1905 0 -0.15
6459 1 -0.042 -0.1915 0 -0.15
6460 1 -0.041 -0.1915 0 -0.15
6461 1 -0.04 -0.1915 0 -0.15
6509 1 -0.042 -0.1905 0 -0.15
6510 1 -0.041 -0.1905 0 -0.15
6511 1 -0.04 -0.1905 0 -0.15
6462 1 -0.039 -0.1915 0 -0.15
6463 1 -0.038 -0.1915 0 -0.15
6512 1 -0.039 -0.1905 0 -0.15
6513 1 -0.038 -0.1905 0 -0.15
6464 1 -0.037 -0.1915 0 -0.15
6465 1 -0.036 -0.1915 0 -0.15
6466 1 -0.035 -0.1915 0 -0.15
6514 1 -0.037 -0.1905 0 -0.15
6515 1 -0.036 -0.1905 0 -0.15
6516 1 -0.035 -0.1905 0 -0.15
6467 1 -0.034 -0.1915 0 -0.15
6468 1 -0.033 -0.1915 0 -0.15
6517 1 -0.034 -0.1905 0 -0.15
6518 1 -0.033 -0.1905 0 -0.15
6469 1 -0.032 -0.1915 0 -0.15
6470 1 -0.031 -0.1915 0 -0.15
6471 1 -0.03 -0.1915 0 -0.15
6519 1 -0.032 -0.1905 0 -0.15
6520 1 -0.031 -0.1905 0 -0.15
6521 1 -0.03 -0.1905 0 -0.15
6472 1 -0.029 -0.1915 0 -0.15
6473 1 -0.028 -0.1915 0 -0.15
6522 1 -0.029 -0.1905 0 -0.15
6523 1 -0.028 -0.1905 0 -0.15
6474 1 -0.027 -0.1915 0 -0.15
6475 1 -0.026 -0.1915 0 -0.15
6476 1 -0.025 -0.1915 0 -0.15
6524 1 -0.027 -0.1905 0 -0.15
6525 1 -0.026 -0.1905 0 -0.15
6526 1 -0.025 -0.1905 0 -0.15
6477 1 -0.024 -0.1915 0 -0.15
6478 1 -0.023 -0.1915 0 -0.15
6527 1 -0.024 -0.1905 0 -0.15
6528 1 -0.023 -0.1905 0 -0.15
6479 1 -0.022 -0.1915 0 -0.15
6480 1 -0.021 -0.1915 0 -0.15
6481 1 -0.02 -0.1915 0 -0.15
6529 1 -0.022 -0.1905 0 -0.15
6530 1 -0.021 -0.1905 0 -0.15
6531 1 -0.02 -0.1905 0 -0.15
6482 1 -0.019 -0.1915 0 -0.15
6483 1 -0.018 -0.1915 0 -0.15
6532 1 -0.019 -0.1905 0 -0.15
6533 1 -0.018 -0.1905 0 -0.15
6484 1 -0.017 -0.1915 0 -0.15
6485 1 -0.016 -0.1915 0 -0.15
6486 1 -0.015 -0.1915 0 -0.15
6534 1 -0.017 -0.1905 0 -0.15
6535 1 -0.016 -0.1905 0 -0.15
6536 1 -0.015 -0.1905 0 -0.15
6487 1 -0.014 -0.1915 0 -0.15
6488 1 -0.013 -0.1915 0 -0.15
6537 1 -0.014 -0.1905 0 -0.15
6538 1 -0.013 -0.1905 0 -0.15
6489 1 -0.012 -0.1915 0 -0.15
6490 1 -0.011 -0.1915 0 -0.15
6491 1 -0.01 -0.1915 0 -0.15
6539 1 -0.012 -0.1905 0 -0.15
6540 1 -0.011 -0.1905 0 -0.15
6541 1 -0.01 -0.1905 0 -0.15
6492 1 -0.009 -0.1915 0 -0.15
6493 1 -0.008 -0.1915 0 -0.15
6542 1 -0.009 -0.1905 0 -0.15
6543 1 -0.008 -0.1905 0 -0.15
6494 1 -0.007 -0.1915 0 -0.15
6495 1 -0.006 -0.1915 0 -0.15
6496 1 -0.005 -0.1915 0 -0.15
6544 1 -0.007 -0.1905 0 -0.15
6545 1 -0.006 -0.1905 0 -0.15
6546 1 -0.005 -0.1905 0 -0.15
6497 1 -0.004 -0.1915 0 -0.15
6547 1 -0.004 -0.1905 0 -0.15
6498 1 -0.003 -0.1915 0 -0.15
6548 1 -0.003 -0.1905 0 -0.15
6551 1 -0.05 -0.1895 0 -0.15
6552 1 -0.049 -0.1895 0 -0.15
6553 1 -0.048 -0.1895 0 -0.15
6554 1 -0.047 -0.1895 0 -0.15
6555 1 -0.046 -0.1895 0 -0.15
6556 1 -0.045 -0.1895 0 -0.15
6557 1 -0.044 -0.1895 0 -0.15
6558 1 -0.043 -0.1895 0 -0.15
6559 1 -0.042 -0.1895 0 -0.15
6560 1 -0.041 -0.1895 0 -0.15
6561 1 -0.04 -0.1895 0 -0.15
6562 1 -0.039 -0.1895 0 -0.15
6563 1 -0.038 -0.1895 0 -0.15
6564 1 -0.037 -0.1895 0 -0.15
6565 1 -0.036 -0.1895 0 -0.15
6566 1 -0.035 -0.1895 0 -0.15
6567 1 -0.034 -0.1895 0 -0.15
6568 1 -0.033 -0.1895 0 -0.15
6569 1 -0.032 -0.1895 0 -0.15
6570 1 -0.031 -0.1895 0 -0.15
6571 1 -0.03 -0.1895 0 -0.15
6572 1 -0.029 -0.1895 0 -0.15
6573 1 -0.028 -0.1895 0 -0.15
6574 1 -0.027 -0.1895 0 -0.15
6575 1 -0.026 -0.1895 0 -0.15
6576 1 -0.025 -0.1895 0 -0.15
6577 1 -0.024 -0.1895 0 -0.15
6578 1 -0.023 -0.1895 0 -0.15
6579 1 -0.022 -0.1895 0 -0.15
6580 1 -0.021 -0.1895 0 -0.15
6581 1 -0.02 -0.1895 0 -0.15
6582 1 -0.019 -0.1895 0 -0.15
6583 1 -0.018 -0.1895 0 -0.15
6584 1 -0.017 -0.1895 0 -0.15
6585 1 -0.016 -0.1895 0 -0.15
6586 1 -0.015 -0.1895 0 -0.15
6587 1 -0.014 -0.1895 0 -0.15
6588 1 -0.013 -0.1895 0 -0.15
6589 1 -0.012 -0.1895 0 -0.15
6590 1 -0.011 -0.1895 0 -0.15
6591 1 -0.01 -0.1895 0 -0.15
6592 1 -0.009 -0.1895 0 -0.15
6593 1 -0.008 -0.1895 0 -0.15
6594 1 -0.007 -0.1895 0 -0.15
6595 1 -0.006 -0.1895 0 -0.15
6596 1 -0.005 -0.1895 0 -0.15
6597 1 -0.004 -0.1895 0 -0.15
6598 1 -0.003 -0.1895 0 -0.15
10498 2 -0.072468 -0.154548 -4.68086 -27.9258
1 3 -0.1 -0.08 0 0
2 3 -0.099 -0.08 0 0
3 3 -0.098 -0.08 0 0
101 3 -0.1 -0.079 0 0
102 3 -0.099 -0.079 0 0
103 3 -0.098 -0.079 0 0
4 3 -0.097 -0.08 0 0
5 3 -0.096 -0.08 0 0
104 3 -0.097 -0.079 0 0
105 3 -0.096 -0.079 0 0
6 3 -0.095 -0.08 0 0
106 3 -0.095 -0.079 0 0
7 3 -0.094 -0.08 0 0
8 3 -0.093 -0.08 0 0
107 3 -0.094 -0.079 0 0
108 3 -0.093 -0.079 0 0
9 3 -0.092 -0.08 0 0
10 3 -0.091 -0.08 0 0
109 3 -0.092 -0.079 0 0
110 3 -0.091 -0.079 0 0
11 3 -0.09 -0.08 0 0
111 3 -0.09 -0.079 0 0
12 3 -0.089 -0.08 0 0
13 3 -0.088 -0.08 0 0
112 3 -0.089 -0.079 0 0
113 3 -0.088 -0.079 0 0
14 3 -0.087 -0.08 0 0
15 3 -0.086 -0.08 0 0
114 3 -0.087 -0.079 0 0
115 3 -0.086 -0.079 0 0
16 3 -0.085 -0.08 0 0
116 3 -0.085 -0.079 0 0
17 3 -0.084 -0.08 0 0
18 3 -0.083 -0.08 0 0
117 3 -0.084 -0.079 0 0
118 3 -0.083 -0.079 0 0
19 3 -0.082 -0.08 0 0
20 3 -0.081 -0.08 0 0
119 3 -0.082 -0.079 0 0
120 3 -0.081 -0.079 0 0
21 3 -0.08 -0.08 0 0
121 3 -0.08 -0.079 0 0
22 3 -0.079 -0.08 0 0
23 3 -0.078 -0.08 0 0
122 3 -0.079 -0.079 0 0
123 3 -0.078 -0.079 0 0
24 3 -0.077 -0.08 0 0
124 3 -0.077 -0.079 0 0
25 3 -0.076 -0.08 0 0
125 3 -0.076 -0.079 0 0
26 3 -0.075 -0.08 0 0
126 3 -0.075 -0.079 0 0
27 3 -0.074 -0.08 0 0
28 3 -0.073 -0.08 0 0
127 3 -0.074 -0.079 0 0
128 3 -0.073 -0.079 0 0
29 3 -0.072 -0.08 0 0
129 3 -0.072 -0.079 0 0
30 3 -0.071 -0.08 0 0
130 3 -0.071 -0.079 0 0
31 3 -0.07 -0.08 0 0
131 3 -0.07 -0.079 0 0
32 3 -0.069 -0.08 0 0
33 3 -0.068 -0.08 0 0
132 3 -0.069 -0.079 0 0
133 3 -0.068 -0.079 0 0
34 3 -0.067 -0.08 0 0
134 3 -0.067 -0.079 0 0
35 3 -0.066 -0.08 0 0
135 3 -0.066 -0.079 0 0
36 3 -0.065 -0.08 0 0
136 3 -0.065 -0.079 0 0
37 3 -0.064 -0.08 0 0
38 3 -0.063 -0.08 0 0
137 3 -0.064 -0.079 0 0
138 3 -0.063 -0.079 0 0
39 3 -0.062 -0.08 0 0
139 3 -0.062 -0.079 0 0
40 3 -0.061 -0.08 0 0
140 3 -0.061 -0.079 0 0
41 3 -0.06 -0.08 0 0
141 3 -0.06 -0.079 0 0
42 3 -0.059 -0.08 0 0
43 3 -0.058 -0.08 0 0
142 3 -0.059 -0.079 0 0
143 3 -0.058 -0.079 0 0
44 3 -0.057 -0.08 0 0
144 3 -0.057 -0.079 0 0
45 3 -0.056 -0.08 0 0
145 3 -0.056 -0.079 0 0
46 3 -0.055 -0.08 0 0
146 3 -0.055 -0.079 0 0
47 3 -0.054 -0.08 0 0
147 3 -0.054 -0.079 0 0
48 3 -0.053 -0.08 0 0
148 3 -0.053 -0.079 0 0
49 3 -0.052 -0.08 0 0
149 3 -0.052 -0.079 0 0
50 3 -0.051 -0.08 0 0
150 3 -0.051 -0.079 0 0
51 3 -0.05 -0.08 0 0
151 3 -0.05 -0.079 0 0
52 3 -0.049 -0.08 0 0
152 3 -0.049 -0.079 0 0
53 3 -0.048 -0.08 0 0
153 3 -0.048 -0.079 0 0
54 3 -0.047 -0.08 0 0
154 3 -0.047 -0.079 0 0
55 3 -0.046 -0.08 0 0
155 3 -0.046 -0.079 0 0
56 3 -0.045 -0.08 0 0
156 3 -0.045 -0.079 0 0
57 3 -0.044 -0.08 0 0
157 3 -0.044 -0.079 0 0
58 3 -0.043 -0.08 0 0
158 3 -0.043 -0.079 0 0
159 3 -0.042 -0.079 0 0
59 3 -0.042 -0.08 0 0
160 3 -0.041 -0.079 0 0
60 3 -0.041 -0.08 0 0
161 3 -0.04 -0.079 0 0
61 3 -0.04 -0.08 0 0
62 3 -0.039 -0.08 0 0
162 3 -0.039 -0.079 0 0
63 3 -0.038 -0.08 0 0
163 3 -0.038 -0.079 0 0
64 3 -0.037 -0.08 0 0
164 3 -0.037 -0.079 0 0
65 3 -0.036 -0.08 0 0
165 3 -0.036 -0.079 0 0
66 3 -0.035 -0.08 0 0
166 3 -0.035 -0.079 0 0
67 3 -0.034 -0.08 0 0
167 3 -0.034 -0.079 0 0
68 3 -0.033 -0.08 0 0
168 3 -0.033 -0.079 0 0
69 3 -0.032 -0.08 0 0
169 3 -0.032 -0.079 0 0
70 3 -0.031 -0.08 0 0
170 3 -0.031 -0.079 0 0
71 3 -0.03 -0.08 0 0
171 3 -0.03 -0.079 0 0
72 3 -0.029 -0.08 0 0
172 3 -0.029 -0.079 0 0
73 3 -0.028 -0.08 0 0
173 3 -0.028 -0.079 0 0
74 3 -0.027 -0.08 0 0
174 3 -0.027 -0.079 0 0
75 3 -0.026 -0.08 0 0
175 3 -0.026 -0.079 0 0
76 3 -0.025 -0.08 0 0
176 3 -0.025 -0.079 0 0
77 3 -0.024 -0.08 0 0
177 3 -0.024 -0.079 0 0
78 3 -0.023 -0.08 0 0
178 3 -0.023 -0.079 0 0
79 3 -0.022 -0.08 0 0
179 3 -0.022 -0.079 0 0
80 3 -0.021 -0.08 0 0
180 3 -0.021 -0.079 0 0
81 3 -0.02 -0.08 0 0
181 3 -0.02 -0.079 0 0
82 3 -0.019 -0.08 0 0
182 3 -0.019 -0.079 0 0
83 3 -0.018 -0.08 0 0
183 3 -0.018 -0.079 0 0
84 3 -0.017 -0.08 0 0
184 3 -0.017 -0.079 0 0
85 3 -0.016 -0.08 0 0
185 3 -0.016 -0.079 0 0
86 3 -0.015 -0.08 0 0
186 3 -0.015 -0.079 0 0
87 3 -0.014 -0.08 0 0
187 3 -0.014 -0.079 0 0
88 3 -0.013 -0.08 0 0
188 3 -0.013 -0.079 0 0
89 3 -0.012 -0.08 0 0
189 3 -0.012 -0.079 0 0
90 3 -0.011 -0.08 0 0
190 3 -0.011 -0.079 0 0
91 3 -0.01 -0.08 0 0
191 3 -0.01 -0.079 0 0
92 3 -0.009 -0.08 0 0
192 3 -0.009 -0.079 0 0
93 3 -0.008 -0.08 0 0
193 3 -0.008 -0.079 0 0
94 3 -0.007 -0.08 0 0
194 3 -0.007 -0.079 0 0
95 3 -0.006 -0.08 0 0
195 3 -0.006 -0.079 0 0
96 3 -0.005 -0.08 0 0
196 3 -0.005 -0.079 0 0
97 3 -0.004 -0.08 0 0
197 3 -0.004 -0.079 0 0
98 3 -0.003 -0.08 0 0
198 3 -0.003 -0.079 0 0
301 3 -0.1 -0.077 0 0
302 3 -0.099 -0.077 0 0
303 3 -0.098 -0.077 0 0
201 3 -0.1 -0.078 0 0
202 3 -0.099 -0.078 0 0
203 3 -0.098 -0.078 0 0
304 3 -0.097 -0.077 0 0
305 3 -0.096 -0.077 0 0
204 3 -0.097 -0.078 0 0
205 3 -0.096 -0.078 0 0
306 3 -0.095 -0.077 0 0
206 3 -0.095 -0.078 0 0
307 3 -0.094 -0.077 0 0
308 3 -0.093 -0.077 0 0
207 3 -0.094 -0.078 0 0
208 3 -0.093 -0.078 0 0
309 3 -0.092 -0.077 0 0
310 3 -0.091 -0.077 0 0
209 3 -0.092 -0.078 0 0
210 3 -0.091 -0.078 0 0
311 3 -0.09 -0.077 0 0
211 3 -0.09 -0.078 0 0
312 3 -0.089 -0.077 0 0
313 3 -0.088 -0.077 0 0
212 3 -0.089 -0.078 0 0
213 3 -0.088 -0.078 0 0
314 3 -0.087 -0.077 0 0
315 3 -0.086 -0.077 0 0
214 3 -0.087 -0.078 0 0
215 3 -0.086 -0.078 0 0
316 3 -0.085 -0.077 0 0
216 3 -0.085 -0.078 0 0
317 3 -0.084 -0.077 0 0
318 3 -0.083 -0.077 0 0
217 3 -0.084 -0.078 0 0
218 3 -0.083 -0.078 0 0
319 3 -0.082 -0.077 0 0
320 3 -0.081 -0.077 0 0
219 3 -0.082 -0.078 0 0
220 3 -0.081 -0.078 0 0
321 3 -0.08 -0.077 0 0
221 3 -0.08 -0.078 0 0
322 3 -0.079 -0.077 0 0
323 3 -0.078 -0.077 0 0
222 3 -0.079 -0.078 0 0
223 3 -0.078 -0.078 0 0
324 3 -0.077 -0.077 0 0
325 3 -0.076 -0.077 0 0
224 3 -0.077 -0.078 0 0
225 3 -0.076 -0.078 0 0
326 3 -0.075 -0.077 0 0
226 3 -0.075 -0.078 0 0
327 3 -0.074 -0.077 0 0
328 3 -0.073 -0.077 0 0
227 3 -0.074 -0.078 0 0
228 3 -0.073 -0.078 0 0
329 3 -0.072 -0.077 0 0
229 3 -0.072 -0.078 0 0
330 3 -0.071 -0.077 0 0
230 3 -0.071 -0.078 0 0
331 3 -0.07 -0.077 0 0
231 3 -0.07 -0.078 0 0
332 3 -0.069 -0.077 0 0
333 3 -0.068 -0.077 0 0
232 3 -0.069 -0.078 0 0
233 3 -0.068 -0.078 0 0
334 3 -0.067 -0.077 0 0
234 3 -0.067 -0.078 0 0
335 3 -0.066 -0.077 0 0
235 3 -0.066 -0.078 0 0
336 3 -0.065 -0.077 0 0
236 3 -0.065 -0.078 0 0
338 3 -0.063 -0.077 0 0
337 3 -0.064 -0.077 0 0
237 3 -0.064 -0.078 0 0
238 3 -0.063 -0.078 0 0
339 3 -0.062 -0.077 0 0
239 3 -0.062 -0.078 0 0
340 3 -0.061 -0.077 0 0
240 3 -0.061 -0.078 0 0
341 3 -0.06 -0.077 0 0
241 3 -0.06 -0.078 0 0
343 3 -0.058 -0.077 0 0
342 3 -0.059 -0.077 0 0
242 3 -0.059 -0.078 0 0
243 3 -0.058 -0.078 0 0
344 3 -0.057 -0.077 0 0
244 3 -0.057 -0.078 0 0
345 3 -0.056 -0.077 0 0
245 3 -0.056 -0.078 0 0
346 3 -0.055 -0.077 0 0
246 3 -0.055 -0.078 0 0
348 3 -0.053 -0.077 0 0
347 3 -0.054 -0.077 0 0
247 3 -0.054 -0.078 0 0
248 3 -0.053 -0.078 0 0
349 3 -0.052 -0.077 0 0
249 3 -0.052 -0.078 0 0
350 3 -0.051 -0.077 0 0
250 3 -0.051 -0.078 0 0
351 3 -0.05 -0.077 0 0
251 3 -0.05 -0.078 0 0
352 3 -0.049 -0.077 0 0
252 3 -0.049 -0.078 0 0
353 3 -0.048 -0.077 0 0
253 3 -0.048 -0.078 0 0
354 3 -0.047 -0.077 0 0
254 3 -0.047 -0.078 0 0
355 3 -0.046 -0.077 0 0
255 3 -0.046 -0.078 0 0
356 3 -0.045 -0.077 0 0
256 3 -0.045 -0.078 0 0
357 3 -0.044 -0.077 0 0
257 3 -0.044 -0.078 0 0
258 3 -0.043 -0.078 0 0
358 3 -0.043 -0.077 0 0
261 3 -0.04 -0.078 0 0
361 3 -0.04 -0.077 0 0
259 3 -0.042 -0.078 0 0
359 3 -0.042 -0.077 0 0
360 3 -0.041 -0.077 0 0
260 3 -0.041 -0.078 0 0
263 3 -0.038 -0.078 0 0
363 3 -0.038 -0.077 0 0
362 3 -0.039 -0.077 0 0
262 3 -0.039 -0.078 0 0
365 3 -0.036 -0.077 0 0
265 3 -0.036 -0.078 0 0
266 3 -0.035 -0.078 0 0
366 3 -0.035 -0.077 0 0
264 3 -0.037 -0.078 0 0
364 3 -0.037 -0.077 0 0
268 3 -0.033 -0.078 0 0
368 3 -0.033 -0.077 0 0
267 3 -0.034 -0.078 0 0
367 3 -0.034 -0.077 0 0
270 3 -0.031 -0.078 0 0
370 3 -0.031 -0.077 0 0
271 3 -0.03 -0.078 0 0
371 3 -0.03 -0.077 0 0
269 3 -0.032 -0.078 0 0
369 3 -0.032 -0.077 0 0
273 3 -0.028 -0.078 0 0
373 3 -0.028 -0.077 0 0
272 3 -0.029 -0.078 0 0
372 3 -0.029 -0.077 0 0
376 3 -0.025 -0.077 0 0
276 3 -0.025 -0.078 0 0
375 3 -0.026 -0.077 0 0
275 3 -0.026 -0.078 0 0
374 3 -0.027 -0.077 0 0
274 3 -0.027 -0.078 0 0
378 3 -0.023 -0.077 0 0
278 3 -0.023 -0.078 0 0
377 3 -0.024 -0.077 0 0
277 3 -0.024 -0.078 0 0
281 3 -0.02 -0.078 0 0
381 3 -0.02 -0.077 0 0
280 3 -0.021 -0.078 0 0
380 3 -0.021 -0.077 0 0
279 3 -0.022 -0.078 0 0
379 3 -0.022 -0.077 0 0
383 3 -0.018 -0.077 0 0
283 3 -0.018 -0.078 0 0
382 3 -0.019 -0.077 0 0
282 3 -0.019 -0.078 0 0
386 3 -0.015 -0.077 0 0
286 3 -0.015 -0.078 0 0
384 3 -0.017 -0.077 0 0
284 3 -0.017 -0.078 0 0
385 3 -0.016 -0.077 0 0
285 3 -0.016 -0.078 0 0
388 3 -0.013 -0.077 0 0
288 3 -0.013 -0.078 0 0
287 3 -0.014 -0.078 0 0
387 3 -0.014 -0.077 0 0
391 3 -0.01 -0.077 0 0
291 3 -0.01 -0.078 0 0
390 3 -0.011 -0.077 0 0
290 3 -0.011 -0.078 0 0
289 3 -0.012 -0.078 0 0
389 3 -0.012 -0.077 0 0
293 3 -0.008 -0.078 0 0
393 3 -0.008 -0.077 0 0
392 3 -0.009 -0.077 0 0
292 3 -0.009 -0.078 0 0
296 3 -0.005 -0.078 0 0
396 3 -0.005 -0.077 0 0
394 3 -0.007 -0.077 0 0
294 3 -0.007 -0.078 0 0
395 3 -0.006 -0.077 0 0
295 3 -0.006 -0.078 0 0
297 3 -0.004 -0.078 0 0
397 3 -0.004 -0.077 0 0
398 3 -0.003 -0.077 0 0
298 3 -0.003 -0.078 0 0
6200 1 -0.001 -0.1975 0 -0.15
6199 1 -0.002 -0.1975 0 -0.15
13047 1 0 -0.1975 0 -0.15
13049 1 0.002 -0.1975 0 -0.15
13048 1 0.001 -0.1975 0 -0.15
13050 1 0.003 -0.1975 0 -0.15
13051 1 0.004 -0.1975 0 -0.15
13052 1 0.005 -0.1975 0 -0.15
13053 1 0.006 -0.1975 0 -0.15
13054 1 0.007 -0.1975 0 -0.15
13055 1 0.008 -0.1975 0 -0.15
13056 1 0.009 -0.1975 0 -0.15
13057 1 0.01 -0.1975 0 -0.15
13058 1 0.011 -0.1975 0 -0.15
13059 1 0.012 -0.1975 0 -0.15
13060 1 0.013 -0.1975 0 -0.15
13061 1 0.014 -0.1975 0 -0.15
13062 1 0.015 -0.1975 0 -0.15
13063 1 0.016 -0.1975 0 -0.15
13064 1 0.017 -0.1975 0 -0.15
13065 1 0.018 -0.1975 0 -0.15
13066 1 0.019 -0.1975 0 -0.15
13067 1 0.02 -0.1975 0 -0.15
13068 1 0.021 -0.1975 0 -0.15
13069 1 0.022 -0.1975 0 -0.15
13070 1 0.023 -0.1975 0 -0.15
13071 1 0.024 -0.1975 0 -0.15
13072 1 0.025 -0.1975 0 -0.15
13073 1 0.026 -0.1975 0 -0.15
13074 1 0.027 -0.1975 0 -0.15
13075 1 0.028 -0.1975 0 -0.15
13076 1 0.029 -0.1975 0 -0.15
13078 1 0.031 -0.1975 0 -0.15
13077 1 0.03 -0.1975 0 -0.15
13079 1 0.032 -0.1975 0 -0.15
13080 1 0.033 -0.1975 0 -0.15
13081 1 0.034 -0.1975 0 -0.15
13082 1 0.035 -0.1975 0 -0.15
13083 1 0.036 -0.1975 0 -0.15
13084 1 0.037 -0.1975 0 -0.15
13085 1 0.038 -0.1975 0 -0.15
13086 1 0.039 -0.1975 0 -0.15
13087 1 0.04 -0.1975 0 -0.15
13088 1 0.041 -0.1975 0 -0.15
13089 1 0.042 -0.1975 0 -0.15
13090 1 0.043 -0.1975 0 -0.15
13091 1 0.044 -0.1975 0 -0.15
13093 1 0.046 -0.1975 0 -0.15
13092 1 0.045 -0.1975 0 -0.15
13094 1 0.047 -0.1975 0 -0.15
13095 1 0.048 -0.1975 0 -0.15
13096 1 0.049 -0.1975 0 -0.15
13097 1 0.05 -0.1975 0 -0.15
6250 1 -0.001 -0.1965 0 -0.15
6249 1 -0.002 -0.1965 0 -0.15
13098 1 0 -0.1965 0 -0.15
6300 1 -0.001 -0.1955 0 -0.15
6299 1 -0.002 -0.1955 0 -0.15
13149 1 0 -0.1955 0 -0.15
13100 1 0.002 -0.1965 0 -0.15
13099 1 0.001 -0.1965 0 -0.15
13101 1 0.003 -0.1965 0 -0.15
13151 1 0.002 -0.1955 0 -0.15
13150 1 0.001 -0.1955 0 -0.15
13152 1 0.003 -0.1955 0 -0.15
13102 1 0.004 -0.1965 0 -0.15
13103 1 0.005 -0.1965 0 -0.15
13153 1 0.004 -0.1955 0 -0.15
13154 1 0.005 -0.1955 0 -0.15
13104 1 0.006 -0.1965 0 -0.15
13105 1 0.007 -0.1965 0 -0.15
13106 1 0.008 -0.1965 0 -0.15
13156 1 0.007 -0.1955 0 -0.15
13155 1 0.006 -0.1955 0 -0.15
13157 1 0.008 -0.1955 0 -0.15
13107 1 0.009 -0.1965 0 -0.15
13108 1 0.01 -0.1965 0 -0.15
13158 1 0.009 -0.1955 0 -0.15
13159 1 0.01 -0.1955 0 -0.15
13110 1 0.012 -0.1965 0 -0.15
13109 1 0.011 -0.1965 0 -0.15
13111 1 0.013 -0.1965 0 -0.15
13161 1 0.012 -0.1955 0 -0.15
13160 1 0.011 -0.1955 0 -0.15
13162 1 0.013 -0.1955 0 -0.15
13112 1 0.014 -0.1965 0 -0.15
13113 1 0.015 -0.1965 0 -0.15
13163 1 0.014 -0.1955 0 -0.15
13164 1 0.015 -0.1955 0 -0.15
13115 1 0.017 -0.1965 0 -0.15
13114 1 0.016 -0.1965 0 -0.15
13116 1 0.018 -0.1965 0 -0.15
13166 1 0.017 -0.1955 0 -0.15
13165 1 0.016 -0.1955 0 -0.15
13167 1 0.018 -0.1955 0 -0.15
13117 1 0.019 -0.1965 0 -0.15
13118 1 0.02 -0.1965 0 -0.15
13168 1 0.019 -0.1955 0 -0.15
13169 1 0.02 -0.1955 0 -0.15
13120 1 0.022 -0.1965 0 -0.15
13119 1 0.021 -0.1965 0 -0.15
13121 1 0.023 -0.1965 0 -0.15
13171 1 0.022 -0.1955 0 -0.15
13170 1 0.021 -0.1955 0 -0.15
13172 1 0.023 -0.1955 0 -0.15
13122 1 0.024 -0.1965 0 -0.15
13123 1 0.025 -0.1965 0 -0.15
13124 1 0.026 -0.1965 0 -0.15
13173 1 0.024 -0.1955 0 -0.15
13174 1 0.025 -0.1955 0 -0.15
13175 1 0.026 -0.1955 0 -0.15
13125 1 0.027 -0.1965 0 -0.15
13126 1 0.028 -0.1965 0 -0.15
13176 1 0.027 -0.1955 0 -0.15
13177 1 0.028 -0.1955 0 -0.15
13127 1 0.029 -0.1965 0 -0.15
13129 1 0.031 -0.1965 0 -0.15
13128 1 0.03 -0.1965 0 -0.15
13178 1 0.029 -0.1955 0 -0.15
13180 1 0.031 -0.1955 0 -0.15
13179 1 0.03 -0.1955 0 -0.15
13130 1 0.032 -0.1965 0 -0.15
13131 1 0.033 -0.1965 0 -0.15
13181 1 0.032 -0.1955 0 -0.15
13182 1 0.033 -0.1955 0 -0.15
13132 1 0.034 -0.1965 0 -0.15
13134 1 0.036 -0.1965 0 -0.15
13133 1 0.035 -0.1965 0 -0.15
13183 1 0.034 -0.1955 0 -0.15
13185 1 0.036 -0.1955 0 -0.15
13184 1 0.035 -0.1955 0 -0.15
13135 1 0.037 -0.1965 0 -0.15
13136 1 0.038 -0.1965 0 -0.15
13186 1 0.037 -0.1955 0 -0.15
13187 1 0.038 -0.1955 0 -0.15
13137 1 0.039 -0.1965 0 -0.15
13139 1 0.041 -0.1965 0 -0.15
13138 1 0.04 -0.1965 0 -0.15
13188 1 0.039 -0.1955 0 -0.15
13190 1 0.041 -0.1955 0 -0.15
13189 1 0.04 -0.1955 0 -0.15
13140 1 0.042 -0.1965 0 -0.15
13141 1 0.043 -0.1965 0 -0.15
13191 1 0.042 -0.1955 0 -0.15
13192 1 0.043 -0.1955 0 -0.15
13142 1 0.044 -0.1965 0 -0.15
13143 1 0.045 -0.1965 0 -0.15
13144 1 0.046 -0.1965 0 -0.15
13193 1 0.044 -0.1955 0 -0.15
13195 1 0.046 -0.1955 0 -0.15
13194 1 0.045 -0.1955 0 -0.15
13145 1 0.047 -0.1965 0 -0.15
13146 1 0.048 -0.1965 0 -0.15
13196 1 0.047 -0.1955 0 -0.15
13197 1 0.048 -0.1955 0 -0.15
13147 1 0.049 -0.1965 0 -0.15
13148 1 0.05 -0.1965 0 -0.15
13198 1 0.049 -0.1955 0 -0.15
13199 1 0.05 -0.1955 0 -0.15
6350 1 -0.001 -0.1945 0 -0.15
6349 1 -0.002 -0.1945 0 -0.15
13200 1 0 -0.1945 0 -0.15
6400 1 -0.001 -0.1935 0 -0.15
6399 1 -0.002 -0.1935 0 -0.15
13251 1 0 -0.1935 0 -0.15
6450 1 -0.001 -0.1925 0 -0.15
6449 1 -0.002 -0.1925 0 -0.15
13302 1 0 -0.1925 0 -0.15
13202 1 0.002 -0.1945 0 -0.15
13201 1 0.001 -0.1945 0 -0.15
13203 1 0.003 -0.1945 0 -0.15
13252 1 0.001 -0.1935 0 -0.15
13253 1 0.002 -0.1935 0 -0.15
13303 1 0.001 -0.1925 0 -0.15
13304 1 0.002 -0.1925 0 -0.15
13254 1 0.003 -0.1935 0 -0.15
13305 1 0.003 -0.1925 0 -0.15
13204 1 0.004 -0.1945 0 -0.15
13205 1 0.005 -0.1945 0 -0.15
13255 1 0.004 -0.1935 0 -0.15
13256 1 0.005 -0.1935 0 -0.15
13306 1 0.004 -0.1925 0 -0.15
13307 1 0.005 -0.1925 0 -0.15
13207 1 0.007 -0.1945 0 -0.15
13206 1 0.006 -0.1945 0 -0.15
13208 1 0.008 -0.1945 0 -0.15
13258 1 0.007 -0.1935 0 -0.15
13257 1 0.006 -0.1935 0 -0.15
13259 1 0.008 -0.1935 0 -0.15
13309 1 0.007 -0.1925 0 -0.15
13308 1 0.006 -0.1925 0 -0.15
13310 1 0.008 -0.1925 0 -0.15
13209 1 0.009 -0.1945 0 -0.15
13210 1 0.01 -0.1945 0 -0.15
13260 1 0.009 -0.1935 0 -0.15
13261 1 0.01 -0.1935 0 -0.15
13311 1 0.009 -0.1925 0 -0.15
13312 1 0.01 -0.1925 0 -0.15
13212 1 0.012 -0.1945 0 -0.15
13211 1 0.011 -0.1945 0 -0.15
13213 1 0.013 -0.1945 0 -0.15
13263 1 0.012 -0.1935 0 -0.15
13262 1 0.011 -0.1935 0 -0.15
13264 1 0.013 -0.1935 0 -0.15
13314 1 0.012 -0.1925 0 -0.15
13313 1 0.011 -0.1925 0 -0.15
13315 1 0.013 -0.1925 0 -0.15
13214 1 0.014 -0.1945 0 -0.15
13215 1 0.015 -0.1945 0 -0.15
13265 1 0.014 -0.1935 0 -0.15
13266 1 0.015 -0.1935 0 -0.15
13316 1 0.014 -0.1925 0 -0.15
13317 1 0.015 -0.1925 0 -0.15
13217 1 0.017 -0.1945 0 -0.15
13216 1 0.016 -0.1945 0 -0.15
13218 1 0.018 -0.1945 0 -0.15
13268 1 0.017 -0.1935 0 -0.15
13267 1 0.016 -0.1935 0 -0.15
13269 1 0.018 -0.1935 0 -0.15
13319 1 0.017 -0.1925 0 -0.15
13318 1 0.016 -0.1925 0 -0.15
13320 1 0.018 -0.1925 0 -0.15
13219 1 0.019 -0.1945 0 -0.15
13220 1 0.02 -0.1945 0 -0.15
13270 1 0.019 -0.1935 0 -0.15
13271 1 0.02 -0.1935 0 -0.15
13321 1 0.019 -0.1925 0 -0.15
13322 1 0.02 -0.1925 0 -0.15
13222 1 0.022 -0.1945 0 -0.15
13221 1 0.021 -0.1945 0 -0.15
13223 1 0.023 -0.1945 0 -0.15
13273 1 0.022 -0.1935 0 -0.15
13272 1 0.021 -0.1935 0 -0.15
13274 1 0.023 -0.1935 0 -0.15
13324 1 0.022 -0.1925 0 -0.15
13323 1 0.021 -0.1925 0 -0.15
13325 1 0.023 -0.1925 0 -0.15
13224 1 0.024 -0.1945 0 -0.15
13225 1 0.025 -0.1945 0 -0.15
13226 1 0.026 -0.1945 0 -0.15
13275 1 0.024 -0.1935 0 -0.15
13276 1 0.025 -0.1935 0 -0.15
13326 1 0.024 -0.1925 0 -0.15
13327 1 0.025 -0.1925 0 -0.15
13277 1 0.026 -0.1935 0 -0.15
13328 1 0.026 -0.1925 0 -0.15
13227 1 0.027 -0.1945 0 -0.15
13228 1 0.028 -0.1945 0 -0.15
13278 1 0.027 -0.1935 0 -0.15
13279 1 0.028 -0.1935 0 -0.15
13329 1 0.027 -0.1925 0 -0.15
13330 1 0.028 -0.1925 0 -0.15
13229 1 0.029 -0.1945 0 -0.15